# vtk DataFile Version 3.0
2D simulation data
ASCII
DATASET STRUCTURED_POINTS
DIMENSIONS 258 258 1
ORIGIN 0 0 0
SPACING 1 1 1
POINT_DATA 66564
SCALARS simulation_data float 1
LOOKUP_TABLE default
85 85 85 85 85 85 85 85 85 85 85 85 85 85 85 85 85 85 85 85 85 85 85 85 85 85 85 85 85 85 85 85 85 85 85 85 85 85 85 85 85 85 85 85 85 85 85 85 85 85 85 85 85 85 85 85 85 85 85 85 85 85 85 85 85 85 85 85 85 85 85 85 85 85 85 85 85 85 85 85 85 85 85 85 85 85 85 85 85 85 85 85 85 85 85 85 85 85 85 85 85 85 85 85 85 85 85 85 85 85 85 85 85 85 85 85 85 85 85 85 85 85 85 85 85 85 85 85 85 85 85 85 85 85 85 85 85 85 85 85 85 85 85 85 85 85 85 85 85 85 85 85 85 85 85 85 85 85 85 85 85 85 85 85 85 85 85 85 85 85 85 85 85 85 85 85 85 85 85 85 85 85 85 85 85 85 85 85 85 85 85 85 85 85 85 85 85 85 85 85 85 85 85 85 85 85 85 85 85 85 85 85 85 85 85 85 85 85 85 85 85 85 85 85 85 85 85 85 85 85 85 85 85 85 85 85 85 85 85 85 85 85 85 85 85 85 85 85 85 85 85 85 85 85 85 85 85 85 
20 52.5079 65.3633 71.4135 74.7294 76.7762 78.1551 79.1452 79.8906 80.4721 80.9388 81.3218 81.642 81.9138 82.1475 82.3507 82.529 82.6867 82.8273 82.9534 83.0672 83.1702 83.264 83.3497 83.4283 83.5006 83.5673 83.6289 83.686 83.739 83.7883 83.8342 83.877 83.9169 83.9542 83.9892 84.0218 84.0525 84.0811 84.108 84.1332 84.1569 84.179 84.1999 84.2193 84.2377 84.2548 84.2709 84.286 84.3002 84.3133 84.3258 84.3373 84.3482 84.3583 84.3678 84.3766 84.3849 84.3926 84.3998 84.4064 84.4126 84.4183 84.4237 84.4286 84.4332 84.4373 84.4413 84.4448 84.4482 84.4512 84.4541 84.4565 84.4589 84.4609 84.463 84.4646 84.4663 84.4676 84.469 84.47 84.4711 84.4719 84.4728 84.4733 84.4741 84.4744 84.475 84.4752 84.4757 84.4757 84.4761 84.476 84.4763 84.4761 84.4763 84.4761 84.4762 84.4759 84.476 84.4757 84.4757 84.4754 84.4754 84.475 84.4751 84.4747 84.4747 84.4743 84.4743 84.4739 84.4739 84.4735 84.4735 84.4732 84.4732 84.4728 84.4729 84.4726 84.4727 84.4724 84.4725 84.4722 84.4724 84.4721 84.4723 84.472 84.4723 84.4721 84.4723 84.4721 84.4724 84.4723 84.4726 84.4725 84.4729 84.4728 84.4732 84.4731 84.4736 84.4736 84.474 84.474 84.4745 84.4745 84.475 84.4751 84.4756 84.4757 84.4762 84.4764 84.4769 84.4771 84.4776 84.4778 84.4784 84.4786 84.4791 84.4793 84.4799 84.4801 84.4807 84.481 84.4815 84.4818 84.4824 84.4826 84.4832 84.4835 84.484 84.4843 84.4849 84.4852 84.4857 84.486 84.4865 84.4868 84.4874 84.4877 84.4882 84.4885 84.489 84.4893 84.4898 84.4901 84.4906 84.4909 84.4913 84.4916 84.4921 84.4924 84.4928 84.4931 84.4935 84.4937 84.4941 84.4944 84.4947 84.4949 84.4952 84.4954 84.4957 84.4958 84.496 84.4961 84.4962 84.4962 84.4962 84.496 84.4959 84.4957 84.4954 84.4949 84.4944 84.4938 84.493 84.4921 84.491 84.4897 84.4883 84.4865 84.4845 84.4822 84.4796 84.4766 84.4732 84.4693 84.4649 84.4599 84.4542 84.4478 84.4405 84.4322 84.4228 84.4121 84.3999 84.3861 84.3703 84.3521 84.3313 84.3073 84.2794 84.247 84.2089 84.1639 84.1103 84.0455 83.9664 83.8681 83.7433 83.5809 83.362 83.0534 82.5908 81.8353 80.4489 77.492 70 
20 39.6685 52.5318 60.5611 65.7279 69.2201 71.6989 73.5352 74.9448 76.0589 76.9611 77.7063 78.3323 78.8655 79.3254 79.726 80.0783 80.3904 80.669 80.919 81.1447 81.3494 81.5359 81.7063 81.8627 82.0066 82.1393 82.2621 82.3758 82.4814 82.5797 82.6712 82.7566 82.8362 82.9107 82.9804 83.0456 83.1067 83.1639 83.2176 83.2679 83.3151 83.3594 83.4009 83.4399 83.4764 83.5107 83.5428 83.573 83.6011 83.6276 83.6523 83.6756 83.6971 83.7175 83.7363 83.7541 83.7704 83.7859 83.8 83.8135 83.8257 83.8373 83.8478 83.8579 83.8668 83.8754 83.883 83.8904 83.8968 83.9031 83.9084 83.9137 83.9181 83.9226 83.9262 83.9299 83.9328 83.9359 83.9382 83.9407 83.9424 83.9445 83.9458 83.9474 83.9483 83.9496 83.9501 83.9512 83.9514 83.9522 83.9522 83.9528 83.9526 83.953 83.9527 83.953 83.9525 83.9527 83.952 83.9522 83.9515 83.9516 83.9508 83.9509 83.9501 83.9501 83.9493 83.9493 83.9485 83.9485 83.9477 83.9478 83.947 83.9471 83.9463 83.9465 83.9458 83.9459 83.9453 83.9455 83.9449 83.9452 83.9446 83.945 83.9445 83.9449 83.9444 83.9449 83.9445 83.9451 83.9448 83.9454 83.9451 83.9458 83.9457 83.9464 83.9463 83.9471 83.947 83.9479 83.9479 83.9488 83.9489 83.9499 83.95 83.951 83.9512 83.9522 83.9525 83.9535 83.9538 83.9549 83.9552 83.9564 83.9567 83.9579 83.9583 83.9594 83.9599 83.961 83.9615 83.9627 83.9631 83.9643 83.9648 83.966 83.9665 83.9677 83.9682 83.9693 83.9699 83.971 83.9716 83.9727 83.9733 83.9744 83.9749 83.976 83.9766 83.9776 83.9782 83.9792 83.9798 83.9808 83.9814 83.9824 83.983 83.9839 83.9845 83.9854 83.9859 83.9868 83.9873 83.9881 83.9886 83.9893 83.9898 83.9905 83.9909 83.9914 83.9917 83.9922 83.9924 83.9927 83.9928 83.9929 83.9928 83.9927 83.9923 83.9919 83.9912 83.9905 83.9894 83.9882 83.9866 83.9848 83.9826 83.9801 83.9771 83.9738 83.9698 83.9653 83.96 83.9541 83.9473 83.9396 83.9308 83.9209 83.9096 83.8968 83.8823 83.8659 83.8472 83.826 83.8019 83.7744 83.7431 83.7072 83.666 83.6186 83.5636 83.4997 83.4249 83.3367 83.2318 83.1056 82.9522 82.7627 82.5245 82.2183 81.8137 81.261 80.4745 79.3016 77.4682 74.5193 70 
20 33.6341 44.534 52.5713 58.4008 62.6774 65.8851 68.3516 70.2941 71.8575 73.1401 74.2097 75.1148 75.8903 76.562 77.1494 77.6672 78.1273 78.5386 78.9085 79.2428 79.5465 79.8232 80.0766 80.3091 80.5232 80.7209 80.9038 81.0733 81.2309 81.3774 81.514 81.6414 81.7604 81.8716 81.9757 82.0731 82.1644 82.2499 82.3302 82.4054 82.476 82.5422 82.6044 82.6626 82.7173 82.7685 82.8167 82.8617 82.904 82.9435 82.9806 83.0152 83.0477 83.0779 83.1064 83.1326 83.1575 83.1803 83.2019 83.2216 83.2403 83.2573 83.2734 83.288 83.3019 83.3142 83.3262 83.3366 83.3468 83.3556 83.3642 83.3715 83.3787 83.3847 83.3908 83.3957 83.4007 83.4046 83.4088 83.4118 83.4152 83.4174 83.4202 83.4218 83.424 83.425 83.4268 83.4273 83.4287 83.4288 83.4299 83.4297 83.4304 83.43 83.4305 83.4299 83.4302 83.4294 83.4296 83.4286 83.4288 83.4277 83.4278 83.4266 83.4267 83.4255 83.4255 83.4243 83.4243 83.4231 83.4231 83.4219 83.4221 83.4209 83.4211 83.4199 83.4202 83.4191 83.4194 83.4185 83.4189 83.418 83.4185 83.4176 83.4182 83.4175 83.4182 83.4176 83.4184 83.4178 83.4187 83.4183 83.4193 83.419 83.42 83.4198 83.421 83.4209 83.4221 83.4221 83.4234 83.4235 83.4249 83.4251 83.4265 83.4268 83.4283 83.4286 83.4302 83.4306 83.4323 83.4327 83.4344 83.4349 83.4366 83.4372 83.439 83.4396 83.4413 83.442 83.4438 83.4445 83.4463 83.447 83.4488 83.4495 83.4513 83.4521 83.4538 83.4546 83.4563 83.4572 83.4589 83.4597 83.4614 83.4623 83.4639 83.4648 83.4664 83.4672 83.4688 83.4697 83.4712 83.4721 83.4736 83.4744 83.4759 83.4767 83.4781 83.479 83.4803 83.4811 83.4824 83.4831 83.4843 83.485 83.4861 83.4867 83.4877 83.4882 83.489 83.4894 83.49 83.4902 83.4906 83.4906 83.4906 83.4902 83.4899 83.4892 83.4883 83.4871 83.4856 83.4837 83.4815 83.4787 83.4756 83.4718 83.4675 83.4623 83.4565 83.4497 83.442 83.4332 83.4232 83.4117 83.3987 83.3839 83.3672 83.3483 83.3268 83.3024 83.2748 83.2434 83.2078 83.1673 83.1211 83.0682 83.0076 82.9379 82.8574 82.7639 82.6548 82.5266 82.3748 82.1934 81.9743 81.7064 81.374 80.9542 80.4138 79.7025 78.7446 77.4285 75.603 73.117 70 
20 30.334 39.3989 46.7892 52.6265 57.2034 60.8121 63.6915 66.0222 67.9366 69.5314 70.8773 72.0266 73.0184 73.8824 74.6415 75.3135 75.9122 76.4491 76.9328 77.371 77.7695 78.1334 78.4668 78.7732 79.0556 79.3165 79.558 79.7822 79.9905 80.1845 80.3652 80.534 80.6916 80.8391 80.977 81.1063 81.2273 81.3409 81.4473 81.5473 81.6409 81.7289 81.8113 81.8888 81.9613 82.0296 82.0933 82.1534 82.2093 82.2621 82.3112 82.3574 82.4003 82.4409 82.4783 82.5137 82.5462 82.577 82.6052 82.6319 82.6563 82.6794 82.7003 82.7203 82.7381 82.7552 82.7704 82.785 82.7977 82.8102 82.8208 82.8314 82.8402 82.849 82.8562 82.8636 82.8693 82.8755 82.88 82.885 82.8885 82.8926 82.8951 82.8984 82.9001 82.9027 82.9037 82.9057 82.9062 82.9077 82.9077 82.9089 82.9084 82.9093 82.9085 82.9091 82.9081 82.9084 82.9072 82.9074 82.906 82.9062 82.9046 82.9047 82.9031 82.9032 82.9015 82.9016 82.8999 82.9 82.8984 82.8985 82.8969 82.8971 82.8955 82.8958 82.8943 82.8947 82.8933 82.8938 82.8925 82.8931 82.892 82.8927 82.8917 82.8925 82.8916 82.8926 82.8919 82.893 82.8923 82.8936 82.8931 82.8945 82.8941 82.8956 82.8954 82.897 82.8969 82.8986 82.8987 82.9005 82.9007 82.9026 82.9029 82.9049 82.9053 82.9074 82.9079 82.9101 82.9106 82.9129 82.9135 82.9158 82.9166 82.9189 82.9197 82.922 82.9229 82.9253 82.9262 82.9286 82.9295 82.9319 82.9329 82.9353 82.9363 82.9387 82.9398 82.9421 82.9432 82.9455 82.9466 82.9489 82.95 82.9522 82.9534 82.9556 82.9567 82.9589 82.96 82.9621 82.9633 82.9653 82.9665 82.9684 82.9696 82.9715 82.9727 82.9745 82.9756 82.9773 82.9784 82.98 82.9811 82.9826 82.9835 82.9849 82.9857 82.9869 82.9875 82.9885 82.9889 82.9896 82.9897 82.99 82.9898 82.9896 82.9889 82.9882 82.9869 82.9855 82.9834 82.9811 82.9781 82.9746 82.9703 82.9655 82.9597 82.9531 82.9453 82.9365 82.9263 82.9148 82.9015 82.8866 82.8695 82.8501 82.8282 82.8033 82.7752 82.7433 82.7071 82.6662 82.6196 82.5667 82.5065 82.4377 82.359 82.2688 82.1647 82.0443 81.9044 81.7407 81.548 81.3194 81.0458 80.7151 80.311 79.8112 79.185 78.3907 77.3732 76.065 74.3985 72.3457 70 
20 28.303 35.9381 42.5597 48.1125 52.6971 56.4681 59.5799 62.1661 64.3348 66.171 67.7408 69.095 70.2734 71.307 72.22 73.032 73.7583 74.4115 75.0019 75.5379 76.0263 76.4731 76.8831 77.2603 77.6085 77.9304 78.2289 78.5059 78.7637 79.0037 79.2277 79.4368 79.6324 79.8152 79.9865 80.1468 80.2973 80.4382 80.5706 80.6946 80.8112 80.9204 81.0232 81.1193 81.2098 81.2944 81.3741 81.4485 81.5185 81.5838 81.6453 81.7024 81.7564 81.8063 81.8535 81.8969 81.9381 81.9758 82.0116 82.0442 82.0752 82.1033 82.1301 82.1541 82.1772 82.1977 82.2174 82.2347 82.2516 82.2661 82.2804 82.2924 82.3045 82.3143 82.3244 82.3324 82.3408 82.3472 82.3541 82.359 82.3646 82.3683 82.3729 82.3755 82.3791 82.3808 82.3836 82.3845 82.3867 82.3869 82.3886 82.3883 82.3895 82.3887 82.3896 82.3884 82.389 82.3875 82.3879 82.3862 82.3864 82.3845 82.3847 82.3827 82.3827 82.3807 82.3807 82.3786 82.3787 82.3766 82.3767 82.3747 82.3749 82.3729 82.3732 82.3713 82.3717 82.3699 82.3704 82.3688 82.3694 82.3679 82.3687 82.3674 82.3683 82.3671 82.3683 82.3672 82.3686 82.3677 82.3692 82.3684 82.3701 82.3696 82.3714 82.371 82.373 82.3728 82.3749 82.3749 82.3771 82.3772 82.3796 82.3799 82.3824 82.3828 82.3854 82.386 82.3887 82.3893 82.3921 82.3929 82.3958 82.3966 82.3995 82.4005 82.4035 82.4045 82.4075 82.4086 82.4116 82.4128 82.4158 82.4171 82.4201 82.4214 82.4243 82.4257 82.4286 82.43 82.4329 82.4343 82.4372 82.4386 82.4415 82.4429 82.4457 82.4471 82.4499 82.4513 82.454 82.4555 82.4581 82.4595 82.462 82.4635 82.466 82.4674 82.4698 82.4712 82.4734 82.4748 82.477 82.4783 82.4803 82.4815 82.4833 82.4845 82.4861 82.487 82.4884 82.4891 82.4901 82.4906 82.4912 82.4912 82.4914 82.4909 82.4904 82.4892 82.488 82.486 82.4837 82.4806 82.4772 82.4727 82.4677 82.4616 82.4547 82.4464 82.4371 82.4261 82.4138 82.3995 82.3834 82.3649 82.3441 82.3204 82.2935 82.2631 82.2287 82.1897 82.1456 82.0956 82.039 81.9747 81.9016 81.8183 81.7232 81.6143 81.4894 81.3453 81.1785 80.9846 80.7578 80.4909 80.1749 79.7978 79.3444 78.795 78.1247 77.3025 76.2928 75.0599 73.5805 71.8673 70 
20 26.9397 33.4906 39.399 44.5662 49.0041 52.7828 55.9933 58.7268 61.0648 63.0765 64.8189 66.3385 67.6724 68.8511 69.8987 70.8351 71.6763 72.4358 73.1243 73.7511 74.3236 74.8484 75.3308 75.7755 76.1863 76.5668 76.9197 77.2479 77.5533 77.8381 78.1038 78.3523 78.5845 78.8021 79.0056 79.1967 79.3756 79.5437 79.7011 79.8492 79.9879 80.1184 80.2406 80.3557 80.4632 80.5646 80.6593 80.7485 80.8317 80.9101 80.983 81.0518 81.1156 81.1759 81.2316 81.2842 81.3326 81.3785 81.4204 81.4603 81.4964 81.5309 81.562 81.5917 81.6182 81.6437 81.6662 81.688 81.707 81.7255 81.7413 81.757 81.7701 81.7832 81.7938 81.8049 81.8133 81.8225 81.8291 81.8366 81.8416 81.8477 81.8514 81.8562 81.8587 81.8626 81.864 81.867 81.8676 81.8699 81.8698 81.8715 81.8707 81.8719 81.8707 81.8715 81.8699 81.8705 81.8685 81.8688 81.8667 81.8668 81.8645 81.8646 81.8621 81.8621 81.8596 81.8597 81.8571 81.8572 81.8547 81.8549 81.8524 81.8527 81.8503 81.8507 81.8485 81.8491 81.847 81.8477 81.8457 81.8467 81.8449 81.846 81.8444 81.8457 81.8443 81.8458 81.8447 81.8464 81.8454 81.8473 81.8466 81.8487 81.8481 81.8504 81.8501 81.8525 81.8524 81.8551 81.8551 81.8579 81.8582 81.8611 81.8616 81.8647 81.8652 81.8685 81.8692 81.8725 81.8734 81.8768 81.8778 81.8813 81.8825 81.886 81.8873 81.8909 81.8922 81.8958 81.8972 81.9009 81.9024 81.906 81.9075 81.9112 81.9128 81.9163 81.918 81.9216 81.9233 81.9268 81.9285 81.9319 81.9337 81.9371 81.9388 81.9422 81.944 81.9472 81.949 81.9522 81.954 81.9571 81.9589 81.9619 81.9636 81.9665 81.9683 81.9711 81.9728 81.9755 81.9771 81.9796 81.9812 81.9835 81.985 81.9871 81.9883 81.9902 81.9912 81.9927 81.9935 81.9945 81.9949 81.9954 81.9952 81.9951 81.9942 81.9933 81.9915 81.9895 81.9866 81.9833 81.979 81.9741 81.968 81.9611 81.9528 81.9433 81.9322 81.9196 81.9049 81.8884 81.8694 81.8479 81.8234 81.7957 81.7642 81.7287 81.6885 81.643 81.5916 81.5334 81.4675 81.3929 81.3082 81.212 81.1024 80.9773 80.8342 80.67 80.4809 80.2623 80.0085 79.7126 79.3658 78.9574 78.4743 77.9003 77.2166 76.4022 75.4359 74.3016 72.9964 71.543 70 
20 25.9651 31.6855 36.9791 41.7488 45.9697 49.665 52.8832 55.6822 58.1202 60.2502 62.119 63.7664 65.2258 66.525 67.6873 68.7319 69.6749 70.5295 71.3071 72.017 72.6673 73.2645 73.8148 74.3228 74.7931 75.229 75.6342 76.011 76.3623 76.6899 76.9962 77.2824 77.5505 77.8013 78.0367 78.2571 78.4642 78.6582 78.8407 79.0117 79.1727 79.3234 79.4653 79.5982 79.7233 79.8403 79.9506 80.0535 80.1505 80.2409 80.3261 80.4053 80.48 80.5492 80.6146 80.6748 80.7319 80.7842 80.8338 80.8791 80.9221 80.961 80.9982 81.0316 81.0636 81.0919 81.1193 81.1433 81.1667 81.1867 81.2066 81.2232 81.2399 81.2536 81.2676 81.2786 81.2902 81.2989 81.3085 81.3152 81.323 81.328 81.3343 81.3377 81.3428 81.345 81.3489 81.35 81.353 81.3532 81.3555 81.3549 81.3565 81.3553 81.3565 81.3547 81.3555 81.3533 81.3538 81.3513 81.3516 81.3489 81.349 81.3461 81.3462 81.3432 81.3432 81.3402 81.3403 81.3373 81.3374 81.3345 81.3347 81.3319 81.3323 81.3296 81.3301 81.3275 81.3283 81.3259 81.3269 81.3247 81.3259 81.3239 81.3253 81.3236 81.3252 81.3237 81.3256 81.3243 81.3265 81.3254 81.3278 81.327 81.3296 81.3291 81.3319 81.3317 81.3347 81.3346 81.3379 81.3381 81.3415 81.3419 81.3455 81.346 81.3498 81.3506 81.3544 81.3554 81.3594 81.3605 81.3646 81.3659 81.37 81.3714 81.3757 81.3772 81.3815 81.3831 81.3874 81.3891 81.3934 81.3952 81.3995 81.4013 81.4056 81.4075 81.4118 81.4137 81.4179 81.4199 81.424 81.4261 81.4301 81.4322 81.4362 81.4383 81.4422 81.4443 81.4481 81.4502 81.4539 81.456 81.4596 81.4617 81.4652 81.4673 81.4707 81.4727 81.476 81.478 81.481 81.4829 81.4858 81.4876 81.4902 81.4919 81.4942 81.4956 81.4977 81.4987 81.5003 81.501 81.5021 81.5022 81.5026 81.502 81.5016 81.5001 81.4986 81.496 81.4932 81.4892 81.4847 81.4788 81.4723 81.4642 81.455 81.4441 81.4317 81.4172 81.4008 81.3818 81.3605 81.3359 81.3083 81.2768 81.2413 81.201 81.1557 81.1043 81.0463 80.9808 80.9068 80.8229 80.7282 80.6206 80.4986 80.3598 80.2017 80.0209 79.814 79.5763 79.3025 78.9861 78.6192 78.1927 77.6958 77.116 76.4399 75.6542 74.7475 73.7144 72.5607 71.3085 70 
20 25.2353 30.3068 35.0828 39.4798 43.4605 47.0237 50.1914 52.998 55.4825 57.6842 59.6394 61.3811 62.9379 64.3345 65.5922 66.729 67.7602 68.6988 69.5559 70.341 71.0621 71.7262 72.3392 72.9065 73.4322 73.9207 74.3749 74.7983 75.193 75.562 75.9067 76.2295 76.5317 76.8152 77.0807 77.3302 77.564 77.7839 77.9901 78.1841 78.366 78.5372 78.6976 78.8488 78.9901 79.1234 79.2479 79.3653 79.4748 79.5781 79.6741 79.7648 79.8488 79.9282 80.0016 80.071 80.1348 80.1953 80.2506 80.3032 80.3509 80.3963 80.4373 80.4765 80.5115 80.5451 80.5748 80.6036 80.6285 80.6529 80.6737 80.6944 80.7115 80.7289 80.7428 80.7573 80.7684 80.7804 80.789 80.7989 80.8054 80.8133 80.818 80.8244 80.8275 80.8326 80.8343 80.8382 80.8389 80.8418 80.8415 80.8436 80.8425 80.844 80.8422 80.8433 80.841 80.8416 80.8389 80.8393 80.8362 80.8364 80.8331 80.8332 80.8298 80.8298 80.8263 80.8263 80.8228 80.8229 80.8195 80.8197 80.8163 80.8167 80.8134 80.814 80.8109 80.8116 80.8088 80.8097 80.8071 80.8083 80.8059 80.8074 80.8052 80.807 80.8051 80.8072 80.8056 80.8079 80.8066 80.8092 80.8082 80.811 80.8103 80.8134 80.813 80.8164 80.8162 80.8198 80.8199 80.8237 80.8241 80.8281 80.8287 80.833 80.8338 80.8382 80.8392 80.8438 80.845 80.8497 80.8511 80.8559 80.8574 80.8623 80.864 80.8689 80.8707 80.8757 80.8776 80.8826 80.8847 80.8896 80.8918 80.8967 80.8989 80.9038 80.9061 80.911 80.9133 80.9181 80.9205 80.9252 80.9276 80.9322 80.9347 80.9392 80.9417 80.9461 80.9486 80.9529 80.9554 80.9596 80.9621 80.9662 80.9686 80.9726 80.975 80.9788 80.9812 80.9848 80.9871 80.9906 80.9927 80.9959 80.998 81.0009 81.0027 81.0053 81.0068 81.0089 81.01 81.0116 81.0122 81.0132 81.0131 81.0132 81.0122 81.0112 81.0091 81.0068 81.0033 80.9994 80.994 80.988 80.9805 80.9719 80.9615 80.9497 80.9357 80.92 80.9016 80.8809 80.857 80.8301 80.7994 80.7648 80.7255 80.6812 80.631 80.5746 80.5108 80.4389 80.3577 80.2662 80.1627 80.0458 79.9134 79.7634 79.5932 79.3997 79.1793 78.9279 78.6404 78.3111 77.9333 77.4994 77.0009 76.4286 75.7736 75.0277 74.1859 73.2483 72.2234 71.1306 70 
20 24.669 29.2232 33.5653 37.6265 41.3681 44.7772 47.8599 50.6348 53.1267 55.3633 57.3722 59.1793 60.8087 62.2814 63.6164 64.83 65.9363 66.9477 67.8749 68.727 69.5121 70.2368 70.9076 71.5294 72.107 72.6442 73.1449 73.6118 74.0481 74.4559 74.8377 75.1952 75.5305 75.8447 76.14 76.4168 76.6772 76.9214 77.1512 77.3668 77.5698 77.7601 77.9394 78.1073 78.2656 78.4137 78.5533 78.6836 78.8065 78.921 79.0291 79.1295 79.2243 79.312 79.395 79.4715 79.544 79.6104 79.6734 79.7308 79.7855 79.8349 79.8822 79.9244 79.9651 80.0011 80.0359 80.0663 80.096 80.1214 80.1465 80.1676 80.1888 80.206 80.2238 80.2376 80.2523 80.2632 80.2754 80.2837 80.2936 80.2997 80.3077 80.3119 80.3182 80.3208 80.3257 80.3269 80.3307 80.3307 80.3335 80.3326 80.3346 80.3328 80.3342 80.3318 80.3327 80.3297 80.3302 80.3269 80.3271 80.3235 80.3236 80.3197 80.3197 80.3157 80.3157 80.3117 80.3118 80.3077 80.3079 80.304 80.3043 80.3005 80.301 80.2974 80.2981 80.2947 80.2956 80.2925 80.2937 80.2908 80.2924 80.2898 80.2916 80.2893 80.2915 80.2895 80.292 80.2903 80.2931 80.2918 80.2949 80.2939 80.2974 80.2967 80.3004 80.3 80.3041 80.304 80.3083 80.3085 80.3131 80.3136 80.3183 80.3191 80.3241 80.3251 80.3303 80.3316 80.3369 80.3383 80.3438 80.3455 80.351 80.3528 80.3585 80.3605 80.3661 80.3683 80.374 80.3763 80.382 80.3844 80.39 80.3925 80.3982 80.4007 80.4063 80.4089 80.4145 80.4171 80.4226 80.4253 80.4307 80.4334 80.4387 80.4415 80.4466 80.4494 80.4544 80.4572 80.4621 80.465 80.4697 80.4725 80.4771 80.4799 80.4844 80.4871 80.4914 80.4941 80.4981 80.5007 80.5045 80.5069 80.5105 80.5127 80.5159 80.5178 80.5206 80.5222 80.5244 80.5255 80.5271 80.5275 80.5282 80.5278 80.5275 80.526 80.5244 80.5215 80.5183 80.5136 80.5084 80.5016 80.4938 80.4842 80.4733 80.4602 80.4455 80.4281 80.4085 80.3858 80.3602 80.3308 80.2978 80.2601 80.2177 80.1697 80.1157 80.0547 79.9861 79.9087 79.8216 79.7235 79.613 79.4884 79.3479 79.1892 79.0099 78.807 78.5774 78.317 78.0215 77.6859 77.3048 76.8718 76.3807 75.825 75.1988 74.4978 73.7205 72.8698 71.9545 70.9905 70 
20 24.2175 28.3514 32.3283 36.0924 39.6075 42.8561 45.8353 48.5534 51.025 53.2688 55.305 57.1538 58.8343 60.3644 61.7602 63.0363 64.2053 65.2789 66.2668 67.178 68.0199 68.7996 69.5226 70.1946 70.8197 71.4025 71.9461 72.4542 72.9292 73.3741 73.7906 74.1815 74.5479 74.8922 75.2152 75.519 75.8041 76.0725 76.3244 76.5617 76.7842 76.994 77.1906 77.376 77.5495 77.7132 77.8661 78.0104 78.145 78.272 78.3902 78.5018 78.6053 78.7032 78.7935 78.8791 78.9576 79.0322 79.1004 79.1652 79.2239 79.28 79.3305 79.3789 79.4219 79.4634 79.4999 79.5354 79.566 79.5962 79.6217 79.6472 79.6681 79.6895 79.7065 79.7244 79.7379 79.7526 79.7631 79.7751 79.783 79.7927 79.7983 79.8061 79.8097 79.8158 79.8177 79.8224 79.8229 79.8265 79.8258 79.8284 79.8267 79.8285 79.826 79.8272 79.8241 79.8248 79.8211 79.8215 79.8175 79.8176 79.8133 79.8133 79.8088 79.8088 79.8042 79.8042 79.7996 79.7997 79.7952 79.7955 79.7911 79.7915 79.7873 79.788 79.784 79.7849 79.7812 79.7824 79.779 79.7806 79.7775 79.7794 79.7766 79.7789 79.7764 79.7791 79.777 79.78 79.7783 79.7817 79.7803 79.7841 79.7831 79.7872 79.7866 79.7909 79.7907 79.7954 79.7955 79.8005 79.8009 79.8062 79.8069 79.8125 79.8135 79.8192 79.8205 79.8264 79.828 79.8341 79.8359 79.8421 79.8441 79.8504 79.8526 79.859 79.8614 79.8678 79.8703 79.8767 79.8794 79.8858 79.8886 79.895 79.8978 79.9042 79.9071 79.9134 79.9164 79.9226 79.9257 79.9318 79.9349 79.9409 79.944 79.9499 79.9531 79.9588 79.962 79.9676 79.9708 79.9762 79.9794 79.9847 79.9879 79.993 79.9961 80.0011 80.0041 80.0089 80.0119 80.0163 80.0192 80.0234 80.026 80.0299 80.0323 80.0357 80.0378 80.0407 80.0423 80.0446 80.0456 80.047 80.0472 80.0477 80.0468 80.0461 80.0439 80.0415 80.0377 80.0334 80.0274 80.0207 80.0121 80.0024 79.9904 79.9769 79.9609 79.9427 79.9215 79.8977 79.8701 79.8391 79.8036 79.7638 79.7185 79.6676 79.6101 79.5456 79.4728 79.3911 79.2991 79.1959 79.0798 78.9494 78.8027 78.6378 78.4521 78.2433 78.0079 77.7429 77.4443 77.1079 76.7292 76.3036 75.8262 75.2927 74.6995 74.0448 73.3291 72.5563 71.7346 70.8769 70 
20 23.8496 27.6363 31.3037 34.8065 38.1126 41.2033 44.0709 46.7171 49.1497 51.3805 53.4238 55.2948 57.0086 58.5796 60.0217 61.3473 62.5678 63.6934 64.7333 65.6957 66.5879 67.4161 68.1865 68.9037 69.5727 70.1971 70.7809 71.3269 71.8385 72.3178 72.7676 73.1895 73.586 73.9581 74.3084 74.6372 74.9468 75.2376 75.5116 75.7688 76.0113 76.2387 76.4532 76.6542 76.8438 77.0212 77.1887 77.3449 77.4926 77.63 77.7599 77.8805 77.9945 78.1 78.1998 78.2918 78.379 78.4588 78.5348 78.6038 78.6697 78.7291 78.786 78.8368 78.8858 78.929 78.971 79.0074 79.0431 79.0736 79.1039 79.1291 79.1546 79.1751 79.1964 79.2129 79.2306 79.2435 79.258 79.2678 79.2796 79.2867 79.2962 79.301 79.3085 79.3113 79.3172 79.3183 79.3227 79.3224 79.3256 79.3242 79.3265 79.324 79.3255 79.3223 79.3232 79.3193 79.3198 79.3155 79.3157 79.3109 79.3109 79.306 79.3059 79.3008 79.3007 79.2955 79.2955 79.2904 79.2906 79.2856 79.2859 79.2811 79.2817 79.277 79.2779 79.2736 79.2748 79.2708 79.2724 79.2687 79.2706 79.2673 79.2696 79.2667 79.2695 79.2669 79.2701 79.268 79.2715 79.2698 79.2738 79.2725 79.2769 79.276 79.2808 79.2803 79.2854 79.2853 79.2908 79.2911 79.2968 79.2975 79.3035 79.3046 79.3109 79.3122 79.3187 79.3203 79.3271 79.329 79.3358 79.338 79.345 79.3474 79.3545 79.3571 79.3643 79.367 79.3742 79.3771 79.3844 79.3874 79.3946 79.3978 79.4049 79.4082 79.4153 79.4186 79.4256 79.429 79.4359 79.4394 79.4461 79.4496 79.4563 79.4598 79.4663 79.4699 79.4763 79.4798 79.486 79.4896 79.4956 79.4992 79.505 79.5086 79.5142 79.5177 79.5231 79.5265 79.5317 79.535 79.5399 79.543 79.5476 79.5505 79.5546 79.5572 79.5608 79.563 79.566 79.5676 79.5699 79.5707 79.572 79.5719 79.572 79.5706 79.5692 79.5663 79.563 79.5581 79.5525 79.5451 79.5366 79.526 79.514 79.4995 79.4831 79.4637 79.4419 79.4165 79.3879 79.355 79.3181 79.276 79.2288 79.1753 79.1153 79.0477 78.9719 78.8866 78.7911 78.6839 78.5639 78.4292 78.2784 78.1094 77.9201 77.7079 77.4703 77.2043 76.9066 76.5737 76.2022 75.7884 75.329 74.8211 74.2628 73.6537 72.9953 72.292 71.551 70.7827 70 
20 23.5442 27.04 30.4431 33.7165 36.8324 39.7724 42.5268 45.0932 47.4745 49.678 51.7131 53.5911 55.3234 56.9218 58.3974 59.7611 61.0226 62.1911 63.2747 64.2811 65.2168 66.0882 66.9004 67.6588 68.3671 69.0299 69.6502 70.2318 70.777 71.2889 71.7693 72.2211 72.6453 73.0447 73.4199 73.7734 74.1055 74.4187 74.7128 74.9903 75.2507 75.4964 75.7268 75.9443 76.148 76.3403 76.52 76.6897 76.848 76.9976 77.1367 77.2683 77.3901 77.5056 77.612 77.713 77.8056 77.8937 77.974 78.0505 78.1198 78.186 78.2455 78.3026 78.3533 78.4024 78.4453 78.4872 78.5232 78.5588 78.5887 78.6188 78.6433 78.6685 78.6883 78.7093 78.725 78.7423 78.7544 78.7685 78.7774 78.7888 78.7951 78.8041 78.808 78.8151 78.817 78.8224 78.8226 78.8267 78.8255 78.8284 78.826 78.828 78.8246 78.8259 78.8218 78.8225 78.8177 78.8181 78.8129 78.8129 78.8074 78.8073 78.8017 78.8015 78.7957 78.7957 78.7899 78.7899 78.7843 78.7845 78.779 78.7795 78.7742 78.775 78.77 78.7712 78.7665 78.768 78.7637 78.7657 78.7617 78.7641 78.7606 78.7635 78.7604 78.7637 78.7611 78.7649 78.7627 78.7669 78.7653 78.7699 78.7687 78.7738 78.7731 78.7786 78.7783 78.7841 78.7843 78.7905 78.7911 78.7976 78.7986 78.8055 78.8068 78.8139 78.8156 78.823 78.8249 78.8325 78.8348 78.8425 78.8451 78.8529 78.8557 78.8637 78.8667 78.8747 78.8778 78.8859 78.8892 78.8972 78.9007 78.9087 78.9123 78.9202 78.9239 78.9318 78.9355 78.9433 78.9471 78.9547 78.9586 78.9661 78.97 78.9773 78.9812 78.9884 78.9924 78.9994 79.0033 79.0102 79.0141 79.0207 79.0247 79.0311 79.035 79.0412 79.045 79.0509 79.0547 79.0603 79.0639 79.0692 79.0726 79.0775 79.0806 79.0851 79.0878 79.0916 79.0938 79.0969 79.0984 79.1007 79.1013 79.1024 79.1018 79.1015 79.0995 79.0974 79.0936 79.0893 79.0831 79.0761 79.067 79.0566 79.0438 79.0293 79.012 78.9923 78.9693 78.9434 78.9134 78.8797 78.8411 78.7979 78.7487 78.6936 78.6314 78.5618 78.4835 78.396 78.2978 78.1881 78.0653 77.9282 77.775 77.604 77.4132 77.2004 76.9633 76.6994 76.4058 76.08 75.7191 75.3204 74.8816 74.4011 73.8779 73.3126 72.7072 72.0659 71.3951 70.7031 70 
20 23.2871 26.5361 29.7117 32.7833 35.7272 38.526 41.1695 43.6526 45.9756 48.1419 50.1578 52.0308 53.77 55.3842 56.8828 58.2744 59.5679 60.7707 61.8906 62.934 63.9075 64.8162 65.6657 66.4603 67.2045 67.9017 68.556 69.1697 69.7464 70.2881 70.7977 71.2766 71.7278 72.1519 72.5517 72.9276 73.2823 73.6156 73.9301 74.2256 74.5046 74.7664 75.0137 75.2454 75.4643 75.6691 75.8627 76.0433 76.2142 76.3732 76.5237 76.6633 76.7955 76.9177 77.0335 77.1401 77.2413 77.3339 77.422 77.5021 77.5786 77.6474 77.7135 77.7724 77.8293 77.8793 77.928 77.9702 78.0116 78.0468 78.0819 78.1109 78.1405 78.1641 78.1888 78.2076 78.228 78.2426 78.2594 78.2704 78.284 78.2919 78.3027 78.3079 78.3164 78.3193 78.3259 78.3267 78.3317 78.3309 78.3344 78.3322 78.3347 78.3314 78.333 78.3287 78.3297 78.3246 78.3251 78.3195 78.3196 78.3136 78.3135 78.3072 78.307 78.3006 78.3004 78.294 78.2939 78.2875 78.2876 78.2814 78.2818 78.2758 78.2765 78.2707 78.2718 78.2664 78.2679 78.2629 78.2648 78.2603 78.2626 78.2585 78.2614 78.2578 78.2612 78.2581 78.2619 78.2593 78.2637 78.2616 78.2665 78.265 78.2703 78.2693 78.2751 78.2746 78.2808 78.2808 78.2875 78.2879 78.295 78.2958 78.3033 78.3045 78.3123 78.314 78.322 78.324 78.3323 78.3347 78.3432 78.3459 78.3545 78.3575 78.3662 78.3694 78.3783 78.3817 78.3906 78.3942 78.4031 78.4069 78.4158 78.4197 78.4285 78.4326 78.4413 78.4454 78.4541 78.4583 78.4668 78.471 78.4794 78.4837 78.4919 78.4963 78.5043 78.5087 78.5165 78.5209 78.5286 78.5329 78.5404 78.5448 78.552 78.5563 78.5633 78.5676 78.5743 78.5785 78.585 78.589 78.5951 78.599 78.6048 78.6084 78.6137 78.617 78.6217 78.6245 78.6285 78.6307 78.6339 78.6353 78.6374 78.6378 78.6386 78.6376 78.6367 78.634 78.6311 78.6262 78.6208 78.6132 78.6046 78.5936 78.5812 78.5659 78.5487 78.5282 78.5051 78.4782 78.4479 78.413 78.3739 78.3292 78.2792 78.2227 78.1594 78.0881 78.0085 77.9193 77.8197 77.7084 77.5845 77.4462 77.2924 77.1212 76.931 76.7197 76.4856 76.2262 75.9396 75.6233 75.2754 74.894 74.4775 74.0249 73.5362 73.0124 72.4557 71.87 71.2607 70.6347 70 
20 23.0679 26.1053 29.0834 31.9771 34.7658 37.4339 39.9708 42.3708 44.6315 46.7544 48.7429 50.6023 52.3389 53.9598 55.4721 56.8834 58.2005 59.4306 60.5797 61.6542 62.6593 63.6006 64.4823 65.3094 66.0852 66.8139 67.4983 68.142 68.7471 69.3169 69.8529 70.3581 70.8334 71.2818 71.7037 72.1019 72.4766 72.8303 73.1629 73.4771 73.7723 74.0511 74.3127 74.56 74.7916 75.0105 75.2152 75.4087 75.5891 75.7599 75.9186 76.0688 76.208 76.3399 76.4615 76.577 76.6829 76.7837 76.8754 76.963 77.0422 77.1181 77.1859 77.2514 77.3092 77.3654 77.4143 77.4622 77.5032 77.544 77.5779 77.6123 77.6401 77.6688 77.6912 77.7151 77.7327 77.7524 77.7658 77.7818 77.7916 77.8044 77.8111 77.8213 77.8253 77.8332 77.8348 77.8408 77.8405 77.8449 77.843 77.8461 77.8428 77.8449 77.8404 77.8417 77.8364 77.837 77.831 77.8312 77.8247 77.8246 77.8177 77.8175 77.8104 77.8101 77.803 77.8028 77.7956 77.7956 77.7886 77.7889 77.7821 77.7826 77.7761 77.7771 77.7709 77.7723 77.7666 77.7684 77.7631 77.7655 77.7607 77.7636 77.7593 77.7628 77.759 77.763 77.7599 77.7644 77.7619 77.767 77.765 77.7706 77.7692 77.7754 77.7745 77.7812 77.7808 77.788 77.7882 77.7958 77.7965 77.8045 77.8057 77.8141 77.8157 77.8244 77.8265 77.8355 77.8379 77.8472 77.85 77.8594 77.8626 77.8722 77.8756 77.8853 77.889 77.8988 77.9027 77.9125 77.9166 77.9264 77.9306 77.9404 77.9448 77.9545 77.959 77.9686 77.9731 77.9826 77.9873 77.9966 78.0013 78.0104 78.0152 78.0242 78.029 78.0377 78.0425 78.0511 78.0559 78.0642 78.0691 78.0771 78.0819 78.0898 78.0945 78.1021 78.1068 78.1141 78.1187 78.1256 78.13 78.1366 78.1408 78.1469 78.1508 78.1564 78.1599 78.1649 78.1678 78.172 78.1742 78.1773 78.1786 78.1805 78.1806 78.181 78.1795 78.178 78.1745 78.1707 78.1647 78.1579 78.1488 78.1385 78.1254 78.1107 78.0928 78.0727 78.0489 78.0221 77.991 77.9561 77.916 77.8712 77.8202 77.7632 77.699 77.6272 77.5467 77.4571 77.3568 77.2454 77.1212 76.9833 76.8302 76.6605 76.4726 76.2649 76.0355 75.7828 75.505 75.2003 74.8672 74.5043 74.1108 73.6862 73.2308 72.746 72.2339 71.6982 71.1434 70.5751 70 