# vtk DataFile Version 3.0
2D simulation data
ASCII
DATASET STRUCTURED_POINTS
DIMENSIONS 258 258 1
ORIGIN 0 0 0
SPACING 1 1 1
POINT_DATA 66564
SCALARS simulation_data float 1
LOOKUP_TABLE default
85 85 85 85 85 85 85 85 85 85 85 85 85 85 85 85 85 85 85 85 85 85 85 85 85 85 85 85 85 85 85 85 85 85 85 85 85 85 85 85 85 85 85 85 85 85 85 85 85 85 85 85 85 85 85 85 85 85 85 85 85 85 85 85 85 85 85 85 85 85 85 85 85 85 85 85 85 85 85 85 85 85 85 85 85 85 85 85 85 85 85 85 85 85 85 85 85 85 85 85 85 85 85 85 85 85 85 85 85 85 85 85 85 85 85 85 85 85 85 85 85 85 85 85 85 85 85 85 85 85 85 85 85 85 85 85 85 85 85 85 85 85 85 85 85 85 85 85 85 85 85 85 85 85 85 85 85 85 85 85 85 85 85 85 85 85 85 85 85 85 85 85 85 85 85 85 85 85 85 85 85 85 85 85 85 85 85 85 85 85 85 85 85 85 85 85 85 85 85 85 85 85 85 85 85 85 85 85 85 85 85 85 85 85 85 85 85 85 85 85 85 85 85 85 85 85 85 85 85 85 85 85 85 85 85 85 85 85 85 85 85 85 85 85 85 85 85 85 85 85 85 85 85 85 85 85 85 85 
20 52.5106 65.3686 71.4214 74.7399 76.7892 78.1706 79.1631 79.9107 80.4944 80.9631 81.3481 81.6701 81.9435 82.1787 82.3832 82.5626 82.7214 82.8628 82.9895 83.1037 83.207 83.3009 83.3865 83.4648 83.5367 83.6027 83.6635 83.7197 83.7716 83.8196 83.864 83.9053 83.9435 83.9791 84.0121 84.0427 84.0712 84.0977 84.1223 84.1451 84.1664 84.1861 84.2044 84.2214 84.2372 84.2518 84.2653 84.2779 84.2895 84.3002 84.3101 84.3192 84.3277 84.3355 84.3426 84.3492 84.3552 84.3608 84.3659 84.3705 84.3748 84.3786 84.3822 84.3854 84.3883 84.391 84.3934 84.3956 84.3976 84.3993 84.4009 84.4023 84.4037 84.4048 84.4058 84.4067 84.4075 84.4082 84.4088 84.4093 84.4098 84.4102 84.4105 84.4108 84.4111 84.4112 84.4114 84.4114 84.4116 84.4116 84.4117 84.4116 84.4117 84.4116 84.4116 84.4115 84.4115 84.4113 84.4113 84.4111 84.4111 84.4109 84.4109 84.4107 84.4106 84.4104 84.4104 84.4102 84.4102 84.41 84.41 84.4098 84.4098 84.4096 84.4096 84.4094 84.4094 84.4093 84.4093 84.4092 84.4092 84.4091 84.4091 84.409 84.4091 84.409 84.4091 84.409 84.4091 84.409 84.4091 84.4091 84.4092 84.4092 84.4093 84.4093 84.4095 84.4095 84.4096 84.4096 84.4098 84.4098 84.41 84.4101 84.4103 84.4103 84.4105 84.4106 84.4108 84.4109 84.4111 84.4112 84.4114 84.4115 84.4117 84.4118 84.4121 84.4121 84.4124 84.4125 84.4127 84.4128 84.413 84.4131 84.4134 84.4135 84.4137 84.4138 84.414 84.4141 84.4143 84.4145 84.4147 84.4148 84.415 84.4151 84.4153 84.4154 84.4156 84.4157 84.4159 84.4161 84.4163 84.4164 84.4166 84.4167 84.4169 84.4171 84.4173 84.4174 84.4176 84.4178 84.418 84.4182 84.4184 84.4186 84.4188 84.419 84.4192 84.4193 84.4196 84.4197 84.4199 84.4201 84.4202 84.4204 84.4205 84.4206 84.4207 84.4207 84.4207 84.4206 84.4205 84.4202 84.4199 84.4195 84.419 84.4184 84.4176 84.4166 84.4154 84.414 84.4123 84.4102 84.4079 84.4051 84.4019 84.3981 84.3937 84.3887 84.3828 84.376 84.3682 84.3592 84.3487 84.3367 84.3227 84.3065 84.2876 84.2656 84.2399 84.2096 84.1738 84.1311 84.0797 84.0174 83.9407 83.8448 83.7225 83.5626 83.3463 83.0403 82.5802 81.8274 80.4436 77.4894 70 
20 39.6738 52.5424 60.577 65.7489 69.2462 71.7299 73.5708 74.985 76.1035 77.0098 77.7588 78.3884 78.9249 79.3877 79.791 80.1456 80.4597 80.7399 80.9912 81.2179 81.4231 81.6097 81.78 81.9358 82.0788 82.2103 82.3314 82.4433 82.5467 82.6424 82.7311 82.8133 82.8896 82.9605 83.0263 83.0875 83.1443 83.1972 83.2463 83.2919 83.3343 83.3737 83.4102 83.4442 83.4756 83.5048 83.5318 83.5569 83.58 83.6015 83.6212 83.6395 83.6563 83.6719 83.6861 83.6993 83.7113 83.7225 83.7326 83.7419 83.7503 83.7581 83.7652 83.7717 83.7775 83.7828 83.7876 83.792 83.7959 83.7995 83.8026 83.8055 83.808 83.8104 83.8123 83.8142 83.8157 83.8172 83.8183 83.8195 83.8203 83.8212 83.8217 83.8224 83.8227 83.8232 83.8234 83.8238 83.8238 83.824 83.8239 83.8241 83.8239 83.824 83.8237 83.8238 83.8235 83.8234 83.8231 83.8231 83.8227 83.8226 83.8223 83.8222 83.8218 83.8217 83.8213 83.8213 83.8209 83.8208 83.8205 83.8204 83.82 83.82 83.8197 83.8197 83.8194 83.8194 83.8191 83.8192 83.8189 83.819 83.8187 83.8188 83.8186 83.8188 83.8186 83.8188 83.8186 83.8189 83.8187 83.819 83.8189 83.8192 83.8191 83.8194 83.8194 83.8198 83.8198 83.8201 83.8202 83.8205 83.8206 83.821 83.8211 83.8215 83.8216 83.8221 83.8222 83.8226 83.8228 83.8232 83.8234 83.8239 83.824 83.8245 83.8247 83.8251 83.8253 83.8258 83.826 83.8265 83.8267 83.8271 83.8273 83.8278 83.828 83.8284 83.8287 83.8291 83.8293 83.8297 83.83 83.8304 83.8306 83.831 83.8313 83.8317 83.8319 83.8323 83.8326 83.833 83.8332 83.8336 83.8339 83.8343 83.8346 83.835 83.8353 83.8357 83.836 83.8364 83.8367 83.8372 83.8375 83.8379 83.8383 83.8387 83.8391 83.8395 83.8399 83.8403 83.8406 83.841 83.8413 83.8416 83.8418 83.842 83.8421 83.8422 83.8421 83.842 83.8417 83.8413 83.8407 83.84 83.8389 83.8377 83.836 83.8341 83.8317 83.8289 83.8255 83.8215 83.8168 83.8113 83.8049 83.7975 83.7888 83.7787 83.7671 83.7537 83.7382 83.7203 83.6997 83.6758 83.6481 83.6161 83.5789 83.5355 83.4848 83.4252 83.3548 83.2711 83.1708 83.0494 82.9008 82.7162 82.483 82.1818 81.7823 81.2347 80.4534 79.2858 77.4576 74.514 70 
20 33.6421 44.55 52.5951 58.4324 62.7165 65.9315 68.4051 70.3545 71.9244 73.2131 74.2886 75.1991 75.9795 76.6556 77.247 77.7684 78.2314 78.6451 79.017 79.3527 79.6571 79.9342 80.1872 80.4189 80.6317 80.8275 81.008 81.1747 81.3289 81.4717 81.604 81.7267 81.8407 81.9465 82.0449 82.1362 82.2212 82.3002 82.3736 82.4418 82.5052 82.564 82.6187 82.6695 82.7166 82.7602 82.8007 82.8381 82.8728 82.9048 82.9344 82.9617 82.987 83.0102 83.0316 83.0512 83.0693 83.0858 83.1011 83.1149 83.1277 83.1392 83.1499 83.1595 83.1683 83.1762 83.1835 83.1899 83.1959 83.2011 83.2059 83.2101 83.214 83.2173 83.2205 83.2231 83.2256 83.2275 83.2295 83.2309 83.2324 83.2334 83.2346 83.2353 83.2361 83.2365 83.2371 83.2373 83.2377 83.2376 83.2379 83.2377 83.2379 83.2376 83.2376 83.2372 83.2372 83.2367 83.2367 83.2361 83.236 83.2355 83.2354 83.2348 83.2347 83.2341 83.234 83.2334 83.2333 83.2327 83.2326 83.2321 83.232 83.2315 83.2315 83.231 83.231 83.2305 83.2306 83.2302 83.2303 83.2299 83.23 83.2297 83.2299 83.2296 83.2299 83.2296 83.2299 83.2297 83.2301 83.2299 83.2303 83.2302 83.2307 83.2306 83.2311 83.2311 83.2316 83.2316 83.2322 83.2323 83.2329 83.233 83.2336 83.2337 83.2344 83.2346 83.2352 83.2354 83.2361 83.2364 83.2371 83.2373 83.238 83.2383 83.239 83.2393 83.24 83.2403 83.241 83.2413 83.242 83.2423 83.243 83.2433 83.244 83.2443 83.245 83.2453 83.246 83.2463 83.2469 83.2473 83.2479 83.2483 83.2489 83.2492 83.2498 83.2502 83.2508 83.2512 83.2518 83.2522 83.2528 83.2532 83.2538 83.2543 83.2549 83.2553 83.256 83.2565 83.2571 83.2576 83.2582 83.2588 83.2594 83.26 83.2606 83.2612 83.2618 83.2623 83.2629 83.2634 83.2639 83.2643 83.2647 83.265 83.2652 83.2653 83.2653 83.265 83.2647 83.2641 83.2632 83.2621 83.2606 83.2587 83.2563 83.2535 83.25 83.2458 83.2408 83.2349 83.228 83.2198 83.2103 83.1993 83.1865 83.1716 83.1545 83.1346 83.1118 83.0853 83.0549 83.0197 82.979 82.9318 82.8772 82.8136 82.7393 82.6523 82.5499 82.4284 82.2836 82.1093 81.8974 81.6369 81.3118 80.8996 80.3668 79.6632 78.7131 77.4049 75.5872 73.1091 70 
20 30.3447 39.4201 46.8209 52.6686 57.2555 60.8741 63.763 66.1028 68.0259 69.6289 70.9825 72.1389 73.1374 74.0074 74.7718 75.4484 76.0512 76.5913 77.0777 77.5177 77.9173 78.2816 78.6146 78.92 79.2006 79.459 79.6974 79.9178 80.1217 80.3106 80.4857 80.6483 80.7992 80.9395 81.0698 81.191 81.3037 81.4084 81.5058 81.5964 81.6805 81.7587 81.8313 81.8987 81.9612 82.0192 82.0729 82.1227 82.1687 82.2113 82.2506 82.287 82.3204 82.3514 82.3797 82.4059 82.4299 82.452 82.4721 82.4906 82.5075 82.523 82.537 82.5499 82.5614 82.5721 82.5816 82.5903 82.598 82.6052 82.6114 82.6172 82.6222 82.6269 82.6307 82.6345 82.6374 82.6404 82.6426 82.6449 82.6465 82.6483 82.6494 82.6507 82.6514 82.6523 82.6526 82.6533 82.6534 82.6538 82.6536 82.6539 82.6536 82.6537 82.6532 82.6532 82.6526 82.6525 82.6519 82.6518 82.651 82.6509 82.6501 82.6499 82.6491 82.649 82.6482 82.6481 82.6473 82.6471 82.6464 82.6463 82.6455 82.6455 82.6448 82.6448 82.6441 82.6442 82.6436 82.6437 82.6432 82.6433 82.6428 82.6431 82.6426 82.643 82.6426 82.643 82.6427 82.6431 82.6429 82.6434 82.6432 82.6438 82.6437 82.6443 82.6442 82.6449 82.6449 82.6457 82.6458 82.6465 82.6467 82.6475 82.6477 82.6485 82.6487 82.6496 82.6499 82.6508 82.6511 82.652 82.6524 82.6533 82.6537 82.6546 82.655 82.656 82.6563 82.6573 82.6577 82.6587 82.6591 82.66 82.6604 82.6614 82.6618 82.6627 82.6632 82.6641 82.6645 82.6654 82.6658 82.6667 82.6671 82.668 82.6685 82.6693 82.6698 82.6706 82.6711 82.6719 82.6724 82.6732 82.6738 82.6746 82.6752 82.676 82.6766 82.6774 82.6781 82.6789 82.6796 82.6805 82.6812 82.682 82.6827 82.6836 82.6843 82.6852 82.6859 82.6868 82.6874 82.6882 82.6888 82.6894 82.6899 82.6904 82.6906 82.6908 82.6908 82.6906 82.6901 82.6894 82.6882 82.6868 82.6848 82.6824 82.6793 82.6756 82.671 82.6656 82.659 82.6513 82.6423 82.6317 82.6192 82.6048 82.5881 82.5687 82.5463 82.5204 82.4905 82.4561 82.4164 82.3706 82.3177 82.2566 82.1858 82.1036 82.0079 81.8961 81.765 81.6103 81.4268 81.2076 80.9436 80.6227 80.2285 79.7387 79.1226 78.3386 77.3314 76.0336 74.3775 72.3352 70 
20 28.3163 35.9647 42.5994 48.1651 52.7623 56.5456 59.6693 62.2669 64.4465 66.2931 67.8725 69.2357 70.4224 71.4634 72.3832 73.201 73.9323 74.5897 75.1833 75.7216 76.2114 76.6587 77.0683 77.4443 77.7902 78.1092 78.4037 78.6761 78.9283 79.1621 79.3791 79.5805 79.7676 79.9416 80.1033 80.2537 80.3936 80.5237 80.6447 80.7572 80.8618 80.9589 81.0492 81.133 81.2108 81.2828 81.3497 81.4116 81.469 81.5219 81.5709 81.6161 81.6579 81.6962 81.7317 81.7641 81.7941 81.8214 81.8467 81.8696 81.8908 81.9099 81.9275 81.9433 81.958 81.971 81.9831 81.9937 82.0036 82.0122 82.0203 82.0271 82.0337 82.0391 82.0443 82.0485 82.0527 82.0559 82.0591 82.0614 82.0639 82.0656 82.0675 82.0686 82.07 82.0706 82.0716 82.0718 82.0724 82.0723 82.0728 82.0724 82.0726 82.0721 82.0722 82.0714 82.0714 82.0706 82.0705 82.0695 82.0694 82.0684 82.0682 82.0672 82.067 82.066 82.0658 82.0648 82.0646 82.0636 82.0635 82.0625 82.0624 82.0615 82.0615 82.0606 82.0607 82.0599 82.06 82.0592 82.0594 82.0587 82.059 82.0584 82.0588 82.0583 82.0587 82.0583 82.0588 82.0584 82.059 82.0588 82.0595 82.0593 82.0601 82.06 82.0608 82.0608 82.0617 82.0617 82.0627 82.0628 82.0639 82.064 82.0651 82.0654 82.0665 82.0668 82.0679 82.0683 82.0695 82.0699 82.0711 82.0715 82.0727 82.0732 82.0744 82.0749 82.0761 82.0766 82.0778 82.0783 82.0795 82.0801 82.0813 82.0818 82.083 82.0835 82.0847 82.0852 82.0864 82.0869 82.088 82.0886 82.0897 82.0903 82.0913 82.092 82.093 82.0936 82.0947 82.0953 82.0963 82.097 82.098 82.0987 82.0998 82.1005 82.1016 82.1023 82.1034 82.1042 82.1053 82.1062 82.1073 82.1082 82.1093 82.1102 82.1113 82.1122 82.1133 82.1142 82.1152 82.116 82.1169 82.1176 82.1184 82.1189 82.1193 82.1195 82.1196 82.1193 82.1188 82.1179 82.1167 82.1149 82.1126 82.1096 82.1059 82.1013 82.0958 82.0892 82.0813 82.0719 82.0609 82.0479 82.0328 82.0152 81.9948 81.9712 81.9439 81.9124 81.8761 81.8343 81.7862 81.7307 81.6667 81.5929 81.5076 81.4088 81.2942 81.1609 81.0051 80.8223 80.607 80.3519 80.0477 79.6828 79.2417 78.7048 78.047 77.2376 76.2408 75.0208 73.5544 71.8542 70 
20 26.9557 33.5226 39.4467 44.6294 49.0825 52.8759 56.1008 58.848 61.199 63.2231 64.9772 66.5076 67.8515 69.0391 70.0948 71.0382 71.8855 72.65 73.3424 73.972 74.5463 75.0718 75.5537 75.9969 76.4052 76.782 77.1304 77.4529 77.7518 78.0291 78.2865 78.5258 78.7481 78.9549 79.1472 79.3262 79.4926 79.6476 79.7916 79.9257 80.0503 80.1661 80.2737 80.3737 80.4664 80.5525 80.6322 80.7061 80.7744 80.8378 80.8961 80.9502 80.9999 81.0459 81.088 81.127 81.1626 81.1955 81.2254 81.253 81.278 81.3011 81.3219 81.3411 81.3582 81.3741 81.3882 81.4013 81.4127 81.4234 81.4326 81.4412 81.4485 81.4555 81.4612 81.4668 81.4711 81.4755 81.4788 81.4822 81.4845 81.4871 81.4887 81.4907 81.4916 81.493 81.4935 81.4944 81.4944 81.4951 81.4948 81.4951 81.4945 81.4947 81.4939 81.4939 81.4929 81.4928 81.4918 81.4916 81.4904 81.4902 81.489 81.4887 81.4875 81.4872 81.486 81.4857 81.4845 81.4843 81.4831 81.483 81.4818 81.4817 81.4806 81.4806 81.4796 81.4797 81.4788 81.4789 81.4781 81.4784 81.4776 81.478 81.4773 81.4778 81.4772 81.4778 81.4773 81.478 81.4776 81.4784 81.4782 81.479 81.4789 81.4798 81.4798 81.4808 81.4809 81.482 81.4821 81.4833 81.4835 81.4848 81.4851 81.4864 81.4868 81.4882 81.4886 81.49 81.4905 81.4919 81.4924 81.4939 81.4944 81.4959 81.4965 81.498 81.4986 81.5001 81.5007 81.5022 81.5029 81.5043 81.505 81.5064 81.5071 81.5085 81.5092 81.5106 81.5113 81.5127 81.5134 81.5147 81.5154 81.5167 81.5174 81.5187 81.5195 81.5207 81.5215 81.5228 81.5236 81.5248 81.5257 81.5269 81.5278 81.5291 81.53 81.5313 81.5322 81.5335 81.5346 81.5359 81.537 81.5383 81.5394 81.5407 81.5419 81.5432 81.5443 81.5456 81.5467 81.5479 81.5488 81.5498 81.5506 81.5514 81.5519 81.5523 81.5523 81.5522 81.5516 81.5506 81.5492 81.5472 81.5445 81.5412 81.5369 81.5317 81.5252 81.5176 81.5084 81.4975 81.4847 81.4696 81.452 81.4316 81.4079 81.3804 81.3487 81.3122 81.2701 81.2216 81.1659 81.1018 81.028 80.9431 80.8451 80.7321 80.6014 80.45 80.2739 80.0687 79.8286 79.5466 79.2141 78.8202 78.3517 77.7926 77.124 76.3248 75.3738 74.2549 72.9652 71.5274 70 
20 25.9839 31.7228 37.0349 41.8227 46.0614 49.7739 53.0088 55.8239 58.2771 60.4216 62.304 63.9641 65.4351 66.7449 67.9166 68.9695 69.9196 70.7801 71.5623 72.2755 72.9279 73.526 74.0758 74.5822 75.0494 75.4813 75.881 76.2515 76.5951 76.9142 77.2107 77.4864 77.7428 77.9814 78.2035 78.4101 78.6025 78.7816 78.9482 79.1032 79.2475 79.3815 79.5061 79.6218 79.7293 79.8289 79.9214 80.007 80.0863 80.1596 80.2275 80.29 80.3478 80.4009 80.4501 80.495 80.5366 80.5744 80.6094 80.6412 80.6705 80.697 80.7214 80.7433 80.7636 80.7817 80.7984 80.8131 80.8268 80.8387 80.8499 80.8594 80.8684 80.8759 80.8831 80.8889 80.8946 80.899 80.9035 80.9067 80.9101 80.9124 80.9149 80.9164 80.9183 80.919 80.9204 80.9206 80.9215 80.9212 80.9218 80.9212 80.9215 80.9206 80.9207 80.9196 80.9195 80.9183 80.9181 80.9167 80.9165 80.915 80.9147 80.9133 80.913 80.9115 80.9112 80.9097 80.9094 80.908 80.9078 80.9063 80.9062 80.9049 80.9048 80.9035 80.9036 80.9024 80.9026 80.9015 80.9018 80.9008 80.9012 80.9003 80.9008 80.9001 80.9007 80.9001 80.9009 80.9004 80.9012 80.9009 80.9019 80.9016 80.9027 80.9026 80.9038 80.9038 80.9051 80.9052 80.9066 80.9068 80.9083 80.9086 80.9101 80.9105 80.9121 80.9126 80.9143 80.9148 80.9165 80.9171 80.9188 80.9195 80.9212 80.9219 80.9237 80.9244 80.9262 80.9269 80.9287 80.9295 80.9312 80.932 80.9337 80.9345 80.9362 80.9371 80.9387 80.9395 80.9412 80.942 80.9436 80.9445 80.946 80.9469 80.9484 80.9493 80.9508 80.9517 80.9532 80.9542 80.9557 80.9566 80.9581 80.9591 80.9606 80.9617 80.9632 80.9643 80.9658 80.967 80.9686 80.9698 80.9714 80.9727 80.9743 80.9756 80.9772 80.9785 80.9801 80.9814 80.9829 80.9841 80.9855 80.9866 80.9877 80.9885 80.9892 80.9897 80.9899 80.9897 80.9892 80.9882 80.9867 80.9845 80.9816 80.9779 80.9732 80.9673 80.9602 80.9516 80.9413 80.9291 80.9147 80.8978 80.878 80.855 80.8284 80.7976 80.762 80.7209 80.6738 80.6195 80.5572 80.4856 80.4034 80.309 80.2005 80.0757 79.9319 79.766 79.5742 79.352 79.094 78.7937 78.4434 78.0336 77.5537 76.9912 76.3326 75.5645 74.6755 73.6603 72.5245 71.2905 70 
20 25.2567 30.3495 35.1467 39.5644 43.5654 47.1484 50.3352 53.1602 55.6622 57.8805 59.8513 61.6075 63.1776 64.5864 65.8549 67.0013 68.0406 68.986 69.8484 70.6374 71.361 72.0261 72.6387 73.2041 73.7266 74.2104 74.6587 75.0746 75.4609 75.82 76.1538 76.4646 76.7537 77.023 77.2738 77.5073 77.7248 77.9273 78.1158 78.2913 78.4546 78.6065 78.7476 78.8788 79.0005 79.1136 79.2183 79.3155 79.4054 79.4887 79.5655 79.6366 79.7021 79.7626 79.8181 79.8695 79.9163 79.9597 79.9991 80.0355 80.0684 80.0989 80.1262 80.1515 80.1741 80.1951 80.2136 80.2308 80.2458 80.2599 80.272 80.2834 80.293 80.3021 80.3096 80.3169 80.3226 80.3283 80.3325 80.337 80.34 80.3434 80.3454 80.3479 80.349 80.3509 80.3513 80.3526 80.3525 80.3533 80.3527 80.3532 80.3523 80.3524 80.3513 80.3512 80.3498 80.3496 80.3481 80.3478 80.3461 80.3458 80.3441 80.3437 80.3419 80.3416 80.3398 80.3395 80.3377 80.3375 80.3358 80.3356 80.3339 80.3338 80.3323 80.3323 80.3309 80.331 80.3296 80.3299 80.3287 80.3291 80.328 80.3285 80.3276 80.3282 80.3275 80.3283 80.3276 80.3286 80.3281 80.3292 80.3288 80.33 80.3298 80.3312 80.3311 80.3326 80.3326 80.3342 80.3344 80.3361 80.3363 80.3381 80.3385 80.3404 80.3409 80.3428 80.3434 80.3454 80.346 80.3481 80.3488 80.3509 80.3516 80.3537 80.3546 80.3567 80.3575 80.3596 80.3605 80.3626 80.3635 80.3655 80.3664 80.3685 80.3694 80.3714 80.3723 80.3743 80.3752 80.3771 80.3781 80.38 80.381 80.3828 80.3838 80.3856 80.3866 80.3884 80.3895 80.3912 80.3923 80.3941 80.3952 80.3969 80.3981 80.3999 80.4012 80.4029 80.4043 80.406 80.4074 80.4093 80.4107 80.4126 80.4141 80.416 80.4175 80.4194 80.4209 80.4227 80.4242 80.4259 80.4273 80.4288 80.4299 80.4311 80.4319 80.4326 80.4329 80.4329 80.4324 80.4315 80.4299 80.4277 80.4245 80.4206 80.4155 80.4092 80.4014 80.3921 80.3808 80.3675 80.3518 80.3333 80.3117 80.2865 80.2574 80.2236 80.1847 80.1399 80.0884 80.0292 79.9614 79.8836 79.7945 79.6924 79.5753 79.4412 79.2873 79.1105 78.9073 78.6734 78.4039 78.093 77.7339 77.319 76.8398 76.2871 75.6518 74.9259 74.1042 73.187 72.1825 71.1101 70 
20 24.6932 29.2714 33.6373 37.7219 41.4863 44.9177 48.022 50.8176 53.3293 55.5846 57.6111 59.4346 61.079 62.5655 63.9128 65.1371 66.2528 67.2719 68.2051 69.0617 69.8496 70.5757 71.2461 71.8659 72.4399 72.972 73.466 73.9249 74.3515 74.7485 75.1181 75.4622 75.7828 76.0815 76.3599 76.6192 76.861 77.0861 77.2958 77.4911 77.6729 77.8419 77.9993 78.1453 78.2812 78.4071 78.5241 78.6323 78.7328 78.8255 78.9115 78.9906 79.064 79.1313 79.1936 79.2506 79.3033 79.3513 79.3957 79.436 79.4732 79.5067 79.5378 79.5656 79.5913 79.6142 79.6354 79.654 79.6715 79.6865 79.7006 79.7126 79.7241 79.7335 79.7426 79.7499 79.7571 79.7626 79.7682 79.7721 79.7765 79.7792 79.7824 79.7841 79.7864 79.7872 79.7889 79.789 79.7901 79.7897 79.7903 79.7894 79.7897 79.7884 79.7885 79.7869 79.7868 79.785 79.7847 79.7828 79.7825 79.7805 79.78 79.778 79.7776 79.7755 79.7751 79.773 79.7727 79.7707 79.7704 79.7685 79.7683 79.7665 79.7664 79.7647 79.7647 79.7631 79.7633 79.7619 79.7622 79.7609 79.7614 79.7603 79.761 79.76 79.7608 79.76 79.761 79.7603 79.7615 79.761 79.7624 79.762 79.7635 79.7633 79.765 79.765 79.7668 79.7669 79.7688 79.769 79.7711 79.7715 79.7736 79.7741 79.7763 79.7769 79.7792 79.7799 79.7823 79.7831 79.7855 79.7863 79.7887 79.7896 79.7921 79.793 79.7955 79.7965 79.7989 79.7999 79.8023 79.8034 79.8057 79.8068 79.8091 79.8102 79.8125 79.8136 79.8159 79.817 79.8191 79.8203 79.8224 79.8236 79.8257 79.8268 79.8289 79.8301 79.8321 79.8333 79.8354 79.8366 79.8386 79.84 79.842 79.8434 79.8454 79.8469 79.8489 79.8505 79.8526 79.8542 79.8563 79.858 79.8602 79.8619 79.864 79.8659 79.868 79.8697 79.8718 79.8735 79.8753 79.8769 79.8785 79.8797 79.8809 79.8816 79.8822 79.8823 79.882 79.8811 79.8796 79.8773 79.8742 79.87 79.8647 79.858 79.8498 79.8398 79.8279 79.8137 79.7969 79.7771 79.754 79.727 79.6958 79.6597 79.618 79.5701 79.515 79.4519 79.3796 79.2969 79.2024 79.0943 78.9709 78.8298 78.6687 78.4845 78.274 78.0332 77.7578 77.4427 77.0823 76.6706 76.201 75.6671 75.063 74.3843 73.6294 72.8014 71.9088 70.9676 70 
20 24.2444 28.405 32.4084 36.1985 39.7392 43.0125 46.0158 48.7569 51.2506 53.5153 55.5712 57.4382 59.1356 60.681 62.0905 63.3786 64.5581 65.6403 66.6352 67.5514 68.3966 69.1777 69.9005 70.5703 71.1917 71.7689 72.3053 72.8045 73.2691 73.7019 74.1051 74.4811 74.8316 75.1584 75.4632 75.7474 76.0123 76.2593 76.4894 76.7039 76.9034 77.0893 77.2621 77.4229 77.5721 77.7108 77.8393 77.9587 78.069 78.1714 78.2658 78.3533 78.4338 78.5083 78.5766 78.6398 78.6975 78.7508 78.7993 78.8442 78.8847 78.9222 78.9559 78.9871 79.0149 79.0407 79.0635 79.0847 79.1031 79.1204 79.1352 79.1492 79.1609 79.1722 79.1813 79.1902 79.1971 79.2042 79.2092 79.2146 79.2182 79.2223 79.2246 79.2276 79.2289 79.231 79.2314 79.2329 79.2326 79.2335 79.2326 79.2331 79.2318 79.2319 79.2303 79.2301 79.2282 79.2279 79.2258 79.2254 79.2231 79.2226 79.2203 79.2198 79.2174 79.2169 79.2145 79.2141 79.2118 79.2114 79.2091 79.2089 79.2067 79.2065 79.2045 79.2045 79.2026 79.2027 79.2009 79.2013 79.1997 79.2002 79.1987 79.1994 79.1982 79.1991 79.198 79.1991 79.1982 79.1995 79.1988 79.2003 79.1998 79.2014 79.2011 79.2029 79.2028 79.2048 79.2049 79.207 79.2072 79.2095 79.2098 79.2122 79.2128 79.2153 79.2159 79.2185 79.2192 79.2219 79.2228 79.2255 79.2264 79.2292 79.2302 79.233 79.2341 79.2369 79.238 79.2408 79.242 79.2447 79.2459 79.2487 79.2499 79.2526 79.2538 79.2565 79.2577 79.2603 79.2616 79.2641 79.2654 79.2679 79.2692 79.2716 79.2729 79.2753 79.2766 79.2789 79.2803 79.2826 79.2841 79.2863 79.2878 79.2901 79.2917 79.294 79.2956 79.2979 79.2996 79.3019 79.3038 79.3061 79.308 79.3104 79.3124 79.3148 79.3169 79.3193 79.3213 79.3237 79.3257 79.328 79.3299 79.3319 79.3336 79.3353 79.3365 79.3377 79.3383 79.3387 79.3385 79.3378 79.3364 79.3342 79.331 79.3268 79.3214 79.3145 79.306 79.2957 79.2832 79.2683 79.2507 79.2299 79.2056 79.1773 79.1445 79.1065 79.0627 79.0124 78.9547 78.8886 78.8129 78.7266 78.6281 78.5158 78.388 78.2424 78.0768 77.8884 77.6741 77.4307 77.1541 76.8402 76.4845 76.0822 75.6285 75.119 74.5501 73.9199 73.2289 72.481 71.6843 70.8518 70 
20 23.8792 27.6954 31.392 34.9235 38.2578 41.3758 44.27 46.9416 49.3985 51.6523 53.7174 55.6085 57.3409 58.9289 60.3862 61.7252 62.9572 64.0925 65.1401 66.1082 67.0041 67.8342 68.6043 69.3195 69.9843 70.6028 71.1787 71.7152 72.2154 72.6818 73.1169 73.5228 73.9017 74.2552 74.5852 74.893 75.1803 75.4481 75.6979 75.9306 76.1475 76.3494 76.5374 76.712 76.8745 77.0253 77.1654 77.2951 77.4155 77.5267 77.6299 77.7249 77.813 77.8938 77.9686 78.0371 78.1005 78.1582 78.2115 78.2599 78.3047 78.345 78.3823 78.4157 78.4467 78.4741 78.4996 78.522 78.5429 78.5609 78.5779 78.5922 78.6059 78.6171 78.628 78.6366 78.6453 78.6517 78.6584 78.6629 78.6681 78.6711 78.6749 78.6767 78.6795 78.6803 78.6822 78.6821 78.6833 78.6825 78.6832 78.6819 78.6821 78.6804 78.6803 78.6782 78.6779 78.6756 78.6751 78.6726 78.672 78.6694 78.6688 78.6661 78.6655 78.6628 78.6622 78.6595 78.6591 78.6564 78.656 78.6535 78.6533 78.6508 78.6508 78.6485 78.6486 78.6465 78.6467 78.6448 78.6453 78.6436 78.6442 78.6427 78.6436 78.6423 78.6434 78.6423 78.6436 78.6428 78.6443 78.6437 78.6454 78.645 78.6469 78.6467 78.6489 78.6488 78.6512 78.6513 78.6538 78.6542 78.6568 78.6573 78.6601 78.6608 78.6637 78.6645 78.6675 78.6684 78.6715 78.6725 78.6757 78.6768 78.6799 78.6811 78.6843 78.6856 78.6888 78.6901 78.6932 78.6946 78.6977 78.6991 78.7022 78.7036 78.7066 78.7081 78.711 78.7125 78.7154 78.7168 78.7197 78.7211 78.7239 78.7254 78.7281 78.7296 78.7323 78.7338 78.7365 78.738 78.7406 78.7423 78.7448 78.7466 78.7491 78.7509 78.7535 78.7554 78.758 78.76 78.7626 78.7647 78.7674 78.7696 78.7723 78.7745 78.7773 78.7796 78.7823 78.7846 78.7872 78.7895 78.792 78.7941 78.7963 78.798 78.7998 78.8011 78.8022 78.8027 78.8028 78.8022 78.8011 78.7989 78.796 78.7918 78.7864 78.7794 78.7708 78.7602 78.7475 78.7322 78.714 78.6926 78.6675 78.6382 78.6043 78.565 78.5197 78.4677 78.4081 78.3399 78.2621 78.1733 78.0723 77.9575 77.8271 77.6792 77.5116 77.3218 77.1071 76.8645 76.5908 76.2824 75.9359 75.5475 75.1138 74.632 74.1002 73.5177 72.8863 72.2101 71.4963 70.7553 70 
20 23.5766 27.1047 30.5397 33.8445 36.9912 39.9611 42.7445 45.3387 47.7467 49.9754 52.0343 53.9344 55.6871 57.3041 58.7965 60.1749 61.4491 62.6282 63.7204 64.7332 65.6732 66.5466 67.3589 68.1149 68.8191 69.4755 70.0876 70.6588 71.1919 71.6898 72.1546 72.5889 72.9944 73.3733 73.7271 74.0575 74.3658 74.6537 74.9222 75.1726 75.4059 75.6234 75.8256 76.014 76.189 76.3518 76.5026 76.6428 76.7725 76.8928 77.0038 77.1068 77.2015 77.2892 77.3696 77.4441 77.512 77.5749 77.632 77.6849 77.7326 77.7768 77.8165 77.8533 77.886 77.9164 77.9431 77.9681 77.9898 78.0101 78.0275 78.044 78.0576 78.0708 78.0814 78.0919 78.0998 78.108 78.1138 78.1201 78.1241 78.1288 78.1313 78.1347 78.136 78.1384 78.1386 78.1402 78.1396 78.1405 78.1392 78.1396 78.1378 78.1378 78.1356 78.1353 78.1327 78.1322 78.1294 78.1288 78.1259 78.1252 78.1221 78.1214 78.1183 78.1177 78.1146 78.114 78.1109 78.1104 78.1075 78.1072 78.1043 78.1041 78.1015 78.1015 78.099 78.0992 78.0969 78.0973 78.0952 78.0959 78.094 78.0949 78.0933 78.0945 78.0931 78.0945 78.0934 78.095 78.0941 78.096 78.0954 78.0975 78.0971 78.0995 78.0993 78.1019 78.1019 78.1047 78.105 78.1079 78.1084 78.1115 78.1121 78.1154 78.1162 78.1195 78.1205 78.1239 78.1251 78.1286 78.1298 78.1334 78.1347 78.1383 78.1397 78.1433 78.1447 78.1483 78.1498 78.1534 78.155 78.1585 78.1601 78.1635 78.1651 78.1685 78.1702 78.1735 78.1751 78.1784 78.18 78.1832 78.1848 78.1879 78.1896 78.1927 78.1944 78.1973 78.1991 78.202 78.2038 78.2067 78.2086 78.2115 78.2134 78.2163 78.2184 78.2213 78.2234 78.2264 78.2286 78.2316 78.234 78.237 78.2395 78.2425 78.2451 78.2481 78.2507 78.2538 78.2564 78.2593 78.2618 78.2645 78.2668 78.2691 78.271 78.2728 78.274 78.275 78.2753 78.2752 78.2741 78.2724 78.2695 78.2656 78.2602 78.2535 78.2448 78.2343 78.2214 78.206 78.1875 78.1658 78.1402 78.1104 78.0758 78.0358 77.9896 77.9367 77.876 77.8066 77.7276 77.6376 77.5354 77.4196 77.2884 77.1402 76.9728 76.7841 76.5717 76.333 76.0654 75.7659 75.4319 75.0606 74.6496 74.1972 73.7025 73.166 72.5896 71.9776 71.3361 70.6736 70 
20 23.3223 26.6063 29.8165 32.9223 35.8996 38.731 41.4059 43.9194 46.2713 48.4651 50.5067 52.4039 54.1653 55.7998 57.3166 58.7245 60.0318 61.2464 62.3756 63.4262 64.4044 65.3157 66.1652 66.9577 67.6975 68.3882 69.0335 69.6364 70.2001 70.727 71.2197 71.6803 72.111 72.5136 72.89 73.2416 73.5702 73.877 74.1634 74.4305 74.6798 74.9118 75.1282 75.3294 75.5167 75.6906 75.8523 76.002 76.1412 76.2697 76.389 76.4989 76.6008 76.6944 76.7811 76.8603 76.9337 77.0006 77.0624 77.1185 77.1704 77.217 77.2603 77.2989 77.3349 77.3666 77.3962 77.4219 77.4462 77.4669 77.4865 77.503 77.5188 77.5316 77.5442 77.554 77.5639 77.5711 77.5788 77.5838 77.5896 77.5929 77.5972 77.599 77.602 77.6026 77.6047 77.6043 77.6055 77.6043 77.6049 77.603 77.6032 77.6008 77.6006 77.5978 77.5973 77.5942 77.5935 77.5902 77.5895 77.586 77.5852 77.5817 77.5809 77.5774 77.5767 77.5732 77.5726 77.5692 77.5687 77.5655 77.5651 77.562 77.5619 77.559 77.5591 77.5564 77.5568 77.5543 77.5549 77.5527 77.5535 77.5516 77.5527 77.5511 77.5525 77.5511 77.5528 77.5517 77.5536 77.5528 77.5551 77.5545 77.557 77.5567 77.5595 77.5594 77.5624 77.5626 77.5658 77.5662 77.5696 77.5703 77.5739 77.5747 77.5784 77.5794 77.5833 77.5844 77.5884 77.5897 77.5937 77.5951 77.5992 77.6007 77.6048 77.6064 77.6104 77.6121 77.6162 77.6179 77.6219 77.6236 77.6276 77.6294 77.6332 77.6351 77.6389 77.6407 77.6444 77.6462 77.6498 77.6517 77.6552 77.6571 77.6605 77.6624 77.6658 77.6677 77.671 77.673 77.6763 77.6783 77.6815 77.6837 77.6869 77.6891 77.6923 77.6946 77.6979 77.7003 77.7036 77.7062 77.7095 77.7122 77.7156 77.7184 77.7218 77.7247 77.7281 77.731 77.7343 77.7372 77.7404 77.7432 77.7461 77.7486 77.7511 77.753 77.7548 77.756 77.7569 77.7569 77.7564 77.7548 77.7524 77.7487 77.7437 77.7371 77.7288 77.7183 77.7056 77.6902 77.6718 77.65 77.6245 77.5945 77.5597 77.5194 77.4731 77.4198 77.3588 77.2892 77.2099 77.1199 77.0178 76.9024 76.772 76.6252 76.46 76.2745 76.0667 75.8344 75.5754 75.2874 74.9682 74.6161 74.2292 73.8068 73.3486 72.8555 72.3299 71.7755 71.1976 70.6031 70 
20 23.1059 26.1811 29.1966 32.1272 34.952 37.6552 40.2262 42.6588 44.9509 47.1035 49.1199 51.0054 52.7661 54.409 55.9412 57.37 58.7023 59.9451 61.1046 62.1868 63.1974 64.1415 65.0237 65.8486 66.62 67.3417 68.017 68.6491 69.2407 69.7945 70.3129 70.7982 71.2523 71.6773 72.0748 72.4467 72.7941 73.119 73.4222 73.7055 73.9696 74.216 74.4454 74.6593 74.858 75.043 75.2146 75.3742 75.5218 75.6589 75.7854 75.9028 76.0108 76.1109 76.2026 76.2877 76.3652 76.437 76.5022 76.5627 76.6171 76.6677 76.7129 76.755 76.7922 76.827 76.8574 76.8859 76.9105 76.9338 76.9534 76.9722 76.9876 77.0026 77.0144 77.0263 77.0351 77.0444 77.0507 77.0578 77.062 77.0673 77.0697 77.0736 77.0746 77.0772 77.077 77.0787 77.0776 77.0785 77.0766 77.0769 77.0744 77.0742 77.0712 77.0707 77.0674 77.0666 77.063 77.0621 77.0583 77.0574 77.0535 77.0525 77.0486 77.0477 77.0437 77.043 77.0391 77.0385 77.0347 77.0342 77.0307 77.0304 77.027 77.027 77.0239 77.0241 77.0212 77.0217 77.0191 77.0199 77.0176 77.0187 77.0167 77.0181 77.0164 77.0181 77.0167 77.0188 77.0177 77.02 77.0193 77.0219 77.0215 77.0244 77.0242 77.0274 77.0275 77.031 77.0314 77.0351 77.0357 77.0396 77.0405 77.0445 77.0456 77.0498 77.0511 77.0554 77.0568 77.0613 77.0628 77.0674 77.069 77.0736 77.0754 77.0799 77.0818 77.0863 77.0882 77.0928 77.0947 77.0992 77.1012 77.1056 77.1076 77.1119 77.1139 77.1181 77.1202 77.1243 77.1264 77.1303 77.1324 77.1363 77.1384 77.1422 77.1444 77.1481 77.1503 77.1539 77.1561 77.1597 77.1621 77.1656 77.168 77.1716 77.1741 77.1777 77.1803 77.1839 77.1867 77.1903 77.1932 77.1969 77.2 77.2037 77.2069 77.2107 77.2139 77.2177 77.2209 77.2246 77.2278 77.2313 77.2343 77.2375 77.2401 77.2428 77.2448 77.2466 77.2477 77.2483 77.2481 77.2471 77.245 77.2418 77.2371 77.231 77.223 77.213 77.2006 77.1856 77.1675 77.146 77.1207 77.091 77.0565 77.0166 76.9704 76.9175 76.857 76.7879 76.7093 76.6203 76.5194 76.4057 76.2776 76.1337 75.9723 75.7919 75.5906 75.3666 75.1181 74.8435 74.5409 74.2091 73.8471 73.4545 73.0315 72.5793 72.1003 71.5978 71.0763 70.5416 70 