# vtk DataFile Version 3.0
2D simulation data
ASCII
DATASET STRUCTURED_POINTS
DIMENSIONS 258 258 1
ORIGIN 0 0 0
SPACING 1 1 1
POINT_DATA 66564
SCALARS simulation_data float 1
LOOKUP_TABLE default
85 85 85 85 85 85 85 85 85 85 85 85 85 85 85 85 85 85 85 85 85 85 85 85 85 85 85 85 85 85 85 85 85 85 85 85 85 85 85 85 85 85 85 85 85 85 85 85 85 85 85 85 85 85 85 85 85 85 85 85 85 85 85 85 85 85 85 85 85 85 85 85 85 85 85 85 85 85 85 85 85 85 85 85 85 85 85 85 85 85 85 85 85 85 85 85 85 85 85 85 85 85 85 85 85 85 85 85 85 85 85 85 85 85 85 85 85 85 85 85 85 85 85 85 85 85 85 85 85 85 85 85 85 85 85 85 85 85 85 85 85 85 85 85 85 85 85 85 85 85 85 85 85 85 85 85 85 85 85 85 85 85 85 85 85 85 85 85 85 85 85 85 85 85 85 85 85 85 85 85 85 85 85 85 85 85 85 85 85 85 85 85 85 85 85 85 85 85 85 85 85 85 85 85 85 85 85 85 85 85 85 85 85 85 85 85 85 85 85 85 85 85 85 85 85 85 85 85 85 85 85 85 85 85 85 85 85 85 85 85 85 85 85 85 85 85 85 85 85 85 85 85 85 85 85 85 85 85 
20 52.5317 65.4105 71.4836 74.8216 76.8895 78.2882 79.2966 80.0586 80.6549 81.1344 81.5281 81.8567 82.1347 82.3724 82.5771 82.7548 82.9097 83.0452 83.1642 83.2688 83.3609 83.4421 83.5136 83.5766 83.632 83.6807 83.7235 83.7609 83.7937 83.8222 83.8471 83.8687 83.8874 83.9036 83.9175 83.9294 83.9397 83.9484 83.9558 83.9621 83.9674 83.9718 83.9756 83.9787 83.9813 83.9835 83.9853 83.9868 83.988 83.989 83.9898 83.9904 83.991 83.9914 83.9917 83.992 83.9922 83.9924 83.9925 83.9926 83.9927 83.9928 83.9928 83.9929 83.9929 83.9929 83.993 83.993 83.993 83.993 83.993 83.993 83.993 83.993 83.993 83.993 83.993 83.993 83.993 83.993 83.993 83.993 83.993 83.993 83.993 83.993 83.993 83.993 83.993 83.993 83.993 83.993 83.993 83.993 83.993 83.993 83.993 83.993 83.993 83.993 83.993 83.993 83.993 83.993 83.993 83.993 83.993 83.993 83.993 83.993 83.993 83.993 83.993 83.993 83.993 83.993 83.993 83.993 83.993 83.993 83.993 83.993 83.993 83.993 83.993 83.993 83.993 83.993 83.993 83.993 83.993 83.993 83.993 83.993 83.993 83.993 83.993 83.993 83.993 83.993 83.993 83.993 83.993 83.993 83.993 83.993 83.993 83.993 83.993 83.993 83.993 83.993 83.993 83.993 83.993 83.993 83.993 83.993 83.993 83.993 83.993 83.993 83.993 83.993 83.993 83.993 83.993 83.993 83.993 83.993 83.993 83.993 83.993 83.993 83.993 83.993 83.993 83.993 83.993 83.993 83.993 83.993 83.993 83.993 83.993 83.993 83.993 83.993 83.993 83.993 83.993 83.993 83.993 83.993 83.993 83.993 83.993 83.993 83.9931 83.9931 83.9931 83.9931 83.9931 83.9932 83.9932 83.9933 83.9933 83.9934 83.9935 83.9935 83.9937 83.9938 83.9939 83.9941 83.9943 83.9945 83.9948 83.9951 83.9954 83.9958 83.9962 83.9966 83.997 83.9975 83.9979 83.9983 83.9987 83.999 83.9992 83.9992 83.999 83.9984 83.9974 83.9959 83.9936 83.9904 83.9861 83.9802 83.9725 83.9624 83.9494 83.9325 83.9109 83.8833 83.8477 83.8018 83.7423 83.6642 83.5604 83.4194 83.2226 82.9365 82.4968 81.7645 80.4015 77.4683 70 
20 39.716 52.6262 60.7014 65.9125 69.4469 71.9653 73.8382 75.2811 76.4249 77.3527 78.1193 78.7623 79.308 79.7757 80.1797 80.5307 80.8372 81.1057 81.3416 81.5492 81.7321 81.8934 82.0355 82.1607 82.271 82.3679 82.453 82.5275 82.5928 82.6497 82.6992 82.7423 82.7795 82.8117 82.8395 82.8633 82.8836 82.901 82.9158 82.9283 82.9389 82.9478 82.9553 82.9615 82.9667 82.971 82.9746 82.9776 82.98 82.982 82.9836 82.9849 82.9859 82.9868 82.9875 82.988 82.9885 82.9888 82.9891 82.9893 82.9895 82.9896 82.9897 82.9898 82.9898 82.9899 82.9899 82.9899 82.99 82.99 82.99 82.99 82.99 82.99 82.99 82.99 82.99 82.99 82.99 82.99 82.99 82.99 82.99 82.99 82.99 82.99 82.99 82.99 82.99 82.99 82.99 82.99 82.99 82.99 82.99 82.99 82.99 82.99 82.99 82.99 82.99 82.99 82.99 82.99 82.99 82.99 82.99 82.99 82.99 82.99 82.99 82.99 82.99 82.99 82.99 82.99 82.99 82.99 82.99 82.99 82.99 82.99 82.99 82.99 82.99 82.99 82.99 82.99 82.99 82.99 82.99 82.99 82.99 82.99 82.99 82.99 82.99 82.99 82.99 82.99 82.99 82.99 82.99 82.99 82.99 82.99 82.99 82.99 82.99 82.99 82.99 82.99 82.99 82.99 82.99 82.99 82.99 82.99 82.99 82.99 82.99 82.99 82.99 82.99 82.99 82.99 82.99 82.99 82.99 82.99 82.99 82.99 82.99 82.99 82.99 82.99 82.99 82.99 82.99 82.99 82.99 82.99 82.99 82.99 82.99 82.99 82.99 82.99 82.99 82.99 82.99 82.99 82.99 82.9901 82.9901 82.9901 82.9901 82.9901 82.9901 82.9902 82.9902 82.9902 82.9903 82.9903 82.9904 82.9905 82.9906 82.9907 82.9909 82.9911 82.9913 82.9916 82.9919 82.9922 82.9926 82.9931 82.9936 82.9942 82.9949 82.9956 82.9964 82.9972 82.9981 82.999 82.9999 83.0007 83.0015 83.0021 83.0025 83.0026 83.0022 83.0012 82.9993 82.9963 82.9919 82.9857 82.9772 82.9659 82.9508 82.9312 82.9057 82.873 82.831 82.7772 82.7083 82.6198 82.5054 82.3563 82.1598 81.8964 81.5358 81.0279 80.287 79.1604 77.3738 74.472 70 
20 33.7055 44.6759 52.7821 58.6781 63.018 66.2852 68.8068 70.7995 72.4074 73.7285 74.8304 75.7612 76.5556 77.2393 77.8318 78.348 78.7997 79.1962 79.545 79.8524 80.1236 80.3628 80.5738 80.7599 80.9237 81.0679 81.1945 81.3055 81.4027 81.4875 81.5613 81.6254 81.681 81.729 81.7703 81.8058 81.8362 81.8621 81.8842 81.9029 81.9187 81.932 81.9431 81.9524 81.9602 81.9667 81.972 81.9764 81.98 81.983 81.9854 81.9873 81.9889 81.9902 81.9912 81.992 81.9927 81.9932 81.9936 81.9939 81.9941 81.9943 81.9945 81.9946 81.9947 81.9948 81.9948 81.9949 81.9949 81.9949 81.9949 81.995 81.995 81.995 81.995 81.995 81.995 81.995 81.995 81.995 81.995 81.995 81.995 81.995 81.995 81.995 81.995 81.995 81.995 81.995 81.995 81.995 81.995 81.995 81.995 81.995 81.995 81.995 81.995 81.995 81.995 81.995 81.995 81.995 81.995 81.995 81.995 81.995 81.995 81.995 81.995 81.995 81.995 81.995 81.995 81.995 81.995 81.995 81.995 81.995 81.995 81.995 81.995 81.995 81.995 81.995 81.995 81.995 81.995 81.995 81.995 81.995 81.995 81.995 81.995 81.995 81.995 81.995 81.995 81.995 81.995 81.995 81.995 81.995 81.995 81.995 81.995 81.995 81.995 81.995 81.995 81.995 81.995 81.995 81.995 81.995 81.995 81.995 81.995 81.995 81.995 81.995 81.995 81.995 81.995 81.995 81.995 81.995 81.995 81.995 81.995 81.995 81.995 81.995 81.995 81.995 81.995 81.995 81.995 81.995 81.995 81.995 81.995 81.995 81.995 81.995 81.995 81.995 81.995 81.995 81.995 81.995 81.995 81.995 81.9951 81.9951 81.9951 81.9951 81.9951 81.9952 81.9952 81.9953 81.9954 81.9955 81.9956 81.9957 81.9959 81.9961 81.9963 81.9966 81.9969 81.9973 81.9978 81.9983 81.9989 81.9996 82.0004 82.0013 82.0023 82.0034 82.0046 82.0058 82.0072 82.0085 82.0099 82.0112 82.0125 82.0135 82.0142 82.0144 82.0139 82.0125 82.0099 82.0057 81.9995 81.9907 81.9785 81.9622 81.9406 81.9124 81.8758 81.8288 81.7687 81.6919 81.5939 81.4685 81.3077 81.1001 80.8298 80.474 79.9991 79.3547 78.465 77.2179 75.4622 73.0465 70 
20 30.4293 39.5883 47.0706 52.9968 57.6584 61.3467 64.2998 66.6975 68.6715 70.3179 71.7071 72.8908 73.9081 74.7885 75.5548 76.2249 76.8129 77.3303 77.7864 78.1891 78.5447 78.8589 79.1363 79.3811 79.597 79.7869 79.9539 80.1004 80.2286 80.3405 80.4381 80.5228 80.5963 80.6597 80.7144 80.7613 80.8015 80.8358 80.865 80.8898 80.9107 80.9283 80.9431 80.9554 80.9657 80.9742 80.9813 80.9871 80.9919 80.9958 80.999 81.0016 81.0037 81.0054 81.0067 81.0078 81.0087 81.0094 81.0099 81.0103 81.0107 81.0109 81.0111 81.0113 81.0114 81.0115 81.0116 81.0116 81.0117 81.0117 81.0117 81.0117 81.0118 81.0118 81.0118 81.0118 81.0118 81.0118 81.0118 81.0118 81.0118 81.0118 81.0118 81.0118 81.0118 81.0118 81.0118 81.0118 81.0118 81.0118 81.0118 81.0118 81.0118 81.0118 81.0118 81.0118 81.0118 81.0118 81.0118 81.0118 81.0118 81.0118 81.0118 81.0118 81.0118 81.0118 81.0118 81.0118 81.0118 81.0118 81.0118 81.0118 81.0118 81.0118 81.0118 81.0118 81.0118 81.0118 81.0118 81.0118 81.0118 81.0118 81.0118 81.0118 81.0118 81.0118 81.0118 81.0118 81.0118 81.0118 81.0118 81.0118 81.0118 81.0118 81.0118 81.0118 81.0118 81.0118 81.0118 81.0118 81.0118 81.0118 81.0118 81.0118 81.0118 81.0118 81.0118 81.0118 81.0118 81.0118 81.0118 81.0118 81.0118 81.0118 81.0118 81.0118 81.0118 81.0118 81.0118 81.0118 81.0118 81.0118 81.0118 81.0118 81.0118 81.0118 81.0118 81.0118 81.0118 81.0118 81.0118 81.0118 81.0118 81.0118 81.0118 81.0118 81.0118 81.0118 81.0118 81.0118 81.0118 81.0118 81.0118 81.0118 81.0118 81.0118 81.0118 81.0118 81.0118 81.0118 81.0118 81.0118 81.0118 81.0119 81.0119 81.0119 81.0119 81.012 81.012 81.012 81.0121 81.0122 81.0123 81.0124 81.0126 81.0128 81.013 81.0132 81.0136 81.0139 81.0144 81.0149 81.0155 81.0162 81.017 81.018 81.019 81.0202 81.0216 81.023 81.0246 81.0263 81.0281 81.03 81.0319 81.0338 81.0355 81.037 81.038 81.0385 81.0381 81.0366 81.0336 81.0285 81.0209 81.0099 80.9948 80.9743 80.9472 80.9118 80.8659 80.8071 80.7319 80.6362 80.5146 80.3601 80.1636 79.9127 79.591 79.1758 78.6363 77.9306 77.0032 75.7863 74.2122 72.2524 70 
20 28.4223 36.1754 42.9123 48.5764 53.2672 57.138 60.3422 63.0125 65.2561 67.1573 68.7815 70.1793 71.39 72.4445 73.3671 74.1772 74.8907 75.5202 76.0766 76.5688 77.0043 77.3896 77.7302 78.0312 78.2968 78.5308 78.7366 78.9172 79.0754 79.2137 79.3341 79.4389 79.5297 79.6081 79.6758 79.7339 79.7836 79.8261 79.8623 79.8929 79.9188 79.9406 79.9589 79.9742 79.987 79.9976 80.0063 80.0135 80.0195 80.0243 80.0283 80.0315 80.0341 80.0362 80.0379 80.0392 80.0403 80.0411 80.0418 80.0423 80.0427 80.0431 80.0433 80.0435 80.0437 80.0438 80.0439 80.0439 80.044 80.044 80.0441 80.0441 80.0441 80.0441 80.0441 80.0441 80.0441 80.0441 80.0441 80.0441 80.0441 80.0441 80.0441 80.0441 80.0441 80.0441 80.0441 80.0441 80.0441 80.0441 80.0441 80.0441 80.0441 80.0441 80.0441 80.0441 80.0441 80.0441 80.0441 80.0441 80.0441 80.0441 80.0441 80.0441 80.0441 80.0441 80.0441 80.0441 80.0441 80.0441 80.0441 80.0441 80.0441 80.0441 80.0441 80.0441 80.0441 80.0441 80.0441 80.0441 80.0441 80.0441 80.0441 80.0441 80.0441 80.0441 80.0441 80.0441 80.0441 80.0441 80.0441 80.0441 80.0441 80.0441 80.0441 80.0441 80.0441 80.0441 80.0441 80.0441 80.0441 80.0441 80.0441 80.0441 80.0441 80.0441 80.0441 80.0441 80.0441 80.0441 80.0441 80.0441 80.0441 80.0441 80.0441 80.0441 80.0441 80.0441 80.0441 80.0441 80.0441 80.0441 80.0441 80.0441 80.0441 80.0441 80.0441 80.0441 80.0441 80.0441 80.0441 80.0441 80.0441 80.0441 80.0441 80.0441 80.0441 80.0441 80.0441 80.0441 80.0441 80.0441 80.0441 80.0441 80.0441 80.0441 80.0441 80.0442 80.0442 80.0442 80.0442 80.0442 80.0442 80.0442 80.0442 80.0443 80.0443 80.0443 80.0444 80.0445 80.0445 80.0446 80.0448 80.0449 80.0451 80.0453 80.0456 80.0459 80.0463 80.0468 80.0474 80.048 80.0488 80.0497 80.0507 80.0519 80.0532 80.0547 80.0564 80.0583 80.0603 80.0625 80.0648 80.0672 80.0697 80.0721 80.0744 80.0765 80.078 80.0789 80.0789 80.0775 80.0743 80.0688 80.0602 80.0478 80.0304 80.0069 79.9756 79.9347 79.8817 79.8137 79.7271 79.6173 79.4785 79.3035 79.0828 78.8045 78.4529 78.0083 77.4454 76.7328 75.8347 74.7149 73.3498 71.7518 70 
20 27.0832 33.7761 39.8232 45.1244 49.69 53.589 56.9109 59.7457 62.1741 64.2643 66.0728 67.6452 69.0187 70.2232 71.2829 72.2179 73.0445 73.7764 74.4251 75.0002 75.5101 75.962 76.3622 76.7162 77.029 77.3048 77.5476 77.7609 77.9479 78.1113 78.2539 78.3778 78.4853 78.5783 78.6584 78.7273 78.7863 78.8367 78.8796 78.9159 78.9467 78.9726 78.9943 79.0125 79.0276 79.0402 79.0506 79.0592 79.0662 79.072 79.0767 79.0805 79.0836 79.0861 79.0881 79.0897 79.091 79.092 79.0928 79.0934 79.0939 79.0943 79.0946 79.0948 79.095 79.0951 79.0952 79.0953 79.0954 79.0954 79.0955 79.0955 79.0955 79.0955 79.0955 79.0955 79.0955 79.0956 79.0956 79.0956 79.0956 79.0956 79.0956 79.0956 79.0956 79.0956 79.0956 79.0956 79.0956 79.0956 79.0956 79.0956 79.0956 79.0956 79.0956 79.0956 79.0956 79.0956 79.0956 79.0956 79.0956 79.0956 79.0956 79.0956 79.0956 79.0956 79.0956 79.0956 79.0956 79.0956 79.0956 79.0956 79.0956 79.0956 79.0956 79.0956 79.0956 79.0956 79.0956 79.0956 79.0956 79.0956 79.0956 79.0956 79.0956 79.0956 79.0956 79.0956 79.0956 79.0956 79.0956 79.0956 79.0956 79.0956 79.0956 79.0956 79.0956 79.0956 79.0956 79.0956 79.0956 79.0956 79.0956 79.0956 79.0956 79.0956 79.0956 79.0956 79.0956 79.0956 79.0956 79.0956 79.0956 79.0956 79.0956 79.0956 79.0956 79.0956 79.0956 79.0956 79.0956 79.0956 79.0956 79.0956 79.0956 79.0956 79.0956 79.0956 79.0956 79.0956 79.0956 79.0956 79.0956 79.0956 79.0956 79.0956 79.0956 79.0956 79.0956 79.0956 79.0956 79.0956 79.0956 79.0956 79.0956 79.0956 79.0956 79.0956 79.0956 79.0956 79.0956 79.0956 79.0956 79.0956 79.0957 79.0957 79.0957 79.0958 79.0959 79.0959 79.096 79.0962 79.0963 79.0965 79.0967 79.097 79.0973 79.0977 79.0982 79.0988 79.0995 79.1002 79.1012 79.1022 79.1035 79.1049 79.1065 79.1083 79.1104 79.1126 79.1151 79.1178 79.1207 79.1237 79.1268 79.1299 79.1329 79.1356 79.1378 79.1393 79.1398 79.1388 79.1358 79.1303 79.1214 79.1082 79.0896 79.0642 79.0302 78.9856 78.9279 78.8539 78.7598 78.6409 78.4916 78.3044 78.0707 77.7795 77.4171 76.9674 76.411 75.7266 74.8927 73.8925 72.7229 71.406 70 
20 26.1331 32.0194 37.4754 42.402 46.7726 50.6087 53.9574 56.8754 59.4195 61.6419 63.5885 65.2985 66.8048 68.1352 69.3127 70.3568 71.2837 72.1074 72.8396 73.4905 74.0689 74.5825 75.0381 75.4418 75.7988 76.114 76.3918 76.636 76.8502 77.0377 77.2012 77.3435 77.467 77.5739 77.666 77.7452 77.8131 77.8711 77.9205 77.9623 77.9977 78.0276 78.0526 78.0736 78.091 78.1055 78.1175 78.1274 78.1356 78.1422 78.1476 78.152 78.1556 78.1585 78.1608 78.1626 78.1641 78.1653 78.1662 78.1669 78.1675 78.1679 78.1683 78.1685 78.1687 78.1689 78.169 78.1691 78.1692 78.1692 78.1693 78.1693 78.1693 78.1694 78.1694 78.1694 78.1694 78.1694 78.1694 78.1694 78.1694 78.1694 78.1694 78.1694 78.1694 78.1694 78.1694 78.1694 78.1694 78.1694 78.1694 78.1694 78.1694 78.1694 78.1694 78.1694 78.1694 78.1694 78.1694 78.1694 78.1694 78.1694 78.1694 78.1694 78.1694 78.1694 78.1694 78.1694 78.1694 78.1694 78.1694 78.1694 78.1694 78.1694 78.1694 78.1694 78.1694 78.1694 78.1694 78.1694 78.1694 78.1694 78.1694 78.1694 78.1694 78.1694 78.1694 78.1694 78.1694 78.1694 78.1694 78.1694 78.1694 78.1694 78.1694 78.1694 78.1694 78.1694 78.1694 78.1694 78.1694 78.1694 78.1694 78.1694 78.1694 78.1694 78.1694 78.1694 78.1694 78.1694 78.1694 78.1694 78.1694 78.1694 78.1694 78.1694 78.1694 78.1694 78.1694 78.1694 78.1694 78.1694 78.1694 78.1694 78.1694 78.1694 78.1694 78.1694 78.1694 78.1694 78.1694 78.1694 78.1694 78.1694 78.1694 78.1694 78.1694 78.1694 78.1694 78.1694 78.1694 78.1694 78.1694 78.1694 78.1694 78.1694 78.1694 78.1694 78.1694 78.1694 78.1694 78.1695 78.1695 78.1695 78.1695 78.1696 78.1696 78.1697 78.1697 78.1698 78.17 78.1701 78.1703 78.1705 78.1708 78.1711 78.1715 78.1719 78.1725 78.1731 78.1739 78.1749 78.1759 78.1772 78.1787 78.1803 78.1822 78.1844 78.1868 78.1895 78.1924 78.1957 78.1991 78.2028 78.2065 78.2104 78.2141 78.2176 78.2207 78.223 78.2243 78.224 78.2217 78.2167 78.2081 78.195 78.1761 78.15 78.1149 78.0686 78.0086 77.9316 77.834 77.711 77.5573 77.366 77.1292 76.8374 76.4794 76.0426 75.513 74.8769 74.1224 73.2437 72.2459 71.1509 70 
20 25.4278 30.6897 35.6519 40.2288 44.3812 48.1061 51.4238 54.3671 56.9739 59.2821 61.3273 63.1416 64.7533 66.1867 67.4631 68.6007 69.615 70.5197 71.3265 72.0457 72.6863 73.2564 73.763 74.2125 74.6107 74.9627 75.2732 75.5465 75.7864 75.9965 76.1799 76.3396 76.4783 76.5983 76.7019 76.791 76.8673 76.9326 76.9881 77.0353 77.0752 77.1088 77.137 77.1606 77.1803 77.1967 77.2102 77.2214 77.2305 77.238 77.2441 77.2491 77.2531 77.2564 77.259 77.2611 77.2627 77.264 77.2651 77.2659 77.2665 77.267 77.2674 77.2677 77.268 77.2681 77.2683 77.2684 77.2685 77.2685 77.2686 77.2686 77.2686 77.2687 77.2687 77.2687 77.2687 77.2687 77.2687 77.2687 77.2687 77.2687 77.2687 77.2687 77.2687 77.2687 77.2687 77.2687 77.2687 77.2687 77.2687 77.2687 77.2687 77.2687 77.2687 77.2687 77.2687 77.2687 77.2687 77.2687 77.2687 77.2687 77.2687 77.2687 77.2687 77.2687 77.2687 77.2687 77.2687 77.2687 77.2687 77.2687 77.2687 77.2687 77.2687 77.2687 77.2687 77.2687 77.2687 77.2687 77.2687 77.2687 77.2687 77.2687 77.2687 77.2687 77.2687 77.2687 77.2687 77.2687 77.2687 77.2687 77.2687 77.2687 77.2687 77.2687 77.2687 77.2687 77.2687 77.2687 77.2687 77.2687 77.2687 77.2687 77.2687 77.2687 77.2687 77.2687 77.2687 77.2687 77.2687 77.2687 77.2687 77.2687 77.2687 77.2687 77.2687 77.2687 77.2687 77.2687 77.2687 77.2687 77.2687 77.2687 77.2687 77.2687 77.2687 77.2687 77.2687 77.2687 77.2687 77.2687 77.2687 77.2687 77.2687 77.2687 77.2687 77.2687 77.2687 77.2687 77.2687 77.2687 77.2687 77.2687 77.2687 77.2687 77.2687 77.2687 77.2687 77.2687 77.2688 77.2688 77.2688 77.2688 77.2689 77.2689 77.2689 77.269 77.2691 77.2692 77.2693 77.2695 77.2697 77.2699 77.2702 77.2706 77.2711 77.2716 77.2722 77.273 77.2739 77.275 77.2762 77.2776 77.2793 77.2813 77.2835 77.2859 77.2888 77.2919 77.2953 77.2991 77.3032 77.3075 77.3121 77.3167 77.3213 77.3258 77.3298 77.3332 77.3355 77.3363 77.3351 77.3311 77.3234 77.3112 77.2931 77.2676 77.2329 77.1869 77.127 77.0501 76.9526 76.8301 76.6776 76.4891 76.2575 75.9751 75.6329 75.2214 74.7311 74.1534 73.4828 72.7188 71.8694 70.9533 70 
20 24.8863 29.6554 34.2078 38.4722 42.4077 45.9996 49.252 52.1818 54.8123 57.17 59.2813 61.1716 62.8641 64.3799 65.7375 66.9537 68.0428 69.018 69.8905 70.6704 71.3669 71.988 72.5411 73.0326 73.4687 73.8547 74.1956 74.4959 74.7598 74.991 75.1931 75.3692 75.5222 75.6547 75.7691 75.8675 75.9519 76.0241 76.0855 76.1377 76.1818 76.219 76.2503 76.2764 76.2983 76.3164 76.3314 76.3437 76.3539 76.3622 76.369 76.3745 76.379 76.3826 76.3855 76.3878 76.3896 76.3911 76.3922 76.3931 76.3939 76.3944 76.3949 76.3952 76.3954 76.3956 76.3958 76.3959 76.396 76.3961 76.3961 76.3962 76.3962 76.3962 76.3962 76.3962 76.3962 76.3963 76.3963 76.3963 76.3963 76.3963 76.3963 76.3963 76.3963 76.3963 76.3963 76.3963 76.3963 76.3963 76.3963 76.3963 76.3963 76.3963 76.3963 76.3963 76.3963 76.3963 76.3963 76.3963 76.3963 76.3963 76.3963 76.3963 76.3963 76.3963 76.3963 76.3963 76.3963 76.3962 76.3962 76.3962 76.3962 76.3962 76.3962 76.3962 76.3962 76.3962 76.3962 76.3962 76.3962 76.3962 76.3962 76.3962 76.3962 76.3962 76.3962 76.3962 76.3962 76.3962 76.3962 76.3962 76.3962 76.3962 76.3962 76.3962 76.3962 76.3962 76.3962 76.3962 76.3962 76.3962 76.3962 76.3962 76.3963 76.3963 76.3963 76.3963 76.3963 76.3963 76.3963 76.3963 76.3963 76.3963 76.3963 76.3963 76.3963 76.3963 76.3963 76.3963 76.3963 76.3963 76.3963 76.3963 76.3963 76.3963 76.3963 76.3963 76.3963 76.3963 76.3963 76.3963 76.3963 76.3963 76.3963 76.3963 76.3963 76.3963 76.3963 76.3963 76.3963 76.3963 76.3963 76.3963 76.3963 76.3963 76.3963 76.3963 76.3963 76.3963 76.3963 76.3963 76.3964 76.3964 76.3964 76.3965 76.3965 76.3966 76.3967 76.3968 76.397 76.3972 76.3974 76.3977 76.398 76.3984 76.3989 76.3995 76.4002 76.4011 76.4021 76.4033 76.4047 76.4064 76.4083 76.4104 76.4129 76.4158 76.419 76.4226 76.4266 76.4309 76.4357 76.4407 76.4461 76.4516 76.4573 76.4628 76.468 76.4726 76.4763 76.4785 76.4787 76.4763 76.4703 76.4597 76.4433 76.4197 76.3869 76.343 76.2855 76.2114 76.1174 75.9995 75.853 75.6729 75.4533 75.1877 74.8692 74.4911 74.0469 73.5318 72.9436 72.2848 71.5633 70.7945 70 
20 24.4598 28.8334 33.0447 37.0355 40.7671 44.2199 47.3888 50.2802 52.9072 55.2869 57.4386 59.3813 61.1338 62.7135 64.1365 65.4174 66.5696 67.6051 68.5346 69.368 70.114 70.7808 71.3757 71.9054 72.376 72.7931 73.1619 73.4872 73.7734 74.0243 74.2438 74.4352 74.6016 74.7457 74.8703 74.9775 75.0695 75.1481 75.2151 75.2721 75.3202 75.3609 75.395 75.4236 75.4474 75.4672 75.4836 75.4971 75.5082 75.5173 75.5247 75.5308 75.5356 75.5396 75.5427 75.5453 75.5473 75.5489 75.5501 75.5511 75.5519 75.5525 75.553 75.5534 75.5537 75.5539 75.5541 75.5542 75.5543 75.5544 75.5544 75.5544 75.5545 75.5545 75.5545 75.5545 75.5545 75.5545 75.5546 75.5546 75.5546 75.5546 75.5546 75.5546 75.5546 75.5546 75.5546 75.5546 75.5546 75.5546 75.5546 75.5546 75.5546 75.5546 75.5546 75.5546 75.5546 75.5546 75.5546 75.5546 75.5546 75.5546 75.5545 75.5545 75.5545 75.5545 75.5545 75.5545 75.5545 75.5545 75.5545 75.5545 75.5545 75.5545 75.5545 75.5545 75.5545 75.5545 75.5545 75.5545 75.5545 75.5545 75.5545 75.5545 75.5545 75.5545 75.5545 75.5545 75.5545 75.5545 75.5545 75.5545 75.5545 75.5545 75.5545 75.5545 75.5545 75.5545 75.5545 75.5545 75.5545 75.5545 75.5545 75.5545 75.5545 75.5545 75.5545 75.5545 75.5545 75.5545 75.5545 75.5546 75.5546 75.5546 75.5546 75.5546 75.5546 75.5546 75.5546 75.5546 75.5546 75.5546 75.5546 75.5546 75.5546 75.5546 75.5546 75.5546 75.5546 75.5546 75.5546 75.5546 75.5546 75.5546 75.5546 75.5546 75.5546 75.5546 75.5546 75.5546 75.5546 75.5546 75.5546 75.5546 75.5546 75.5546 75.5546 75.5546 75.5546 75.5546 75.5546 75.5546 75.5547 75.5547 75.5547 75.5548 75.5549 75.5549 75.5551 75.5552 75.5553 75.5556 75.5558 75.5561 75.5565 75.5569 75.5575 75.5582 75.559 75.5599 75.561 75.5624 75.564 75.5658 75.5679 75.5704 75.5732 75.5764 75.58 75.5841 75.5886 75.5936 75.599 75.6049 75.6111 75.6177 75.6244 75.6311 75.6377 75.6438 75.649 75.653 75.6551 75.6547 75.651 75.6428 75.6291 75.6084 75.579 75.5389 75.4858 75.417 75.3293 75.2193 75.083 74.9158 74.7131 74.4696 74.1802 73.8401 73.4451 72.9928 72.483 71.9191 71.3086 70.6635 70 
20 24.117 28.1683 32.0946 35.8479 39.3934 42.7098 45.7874 48.6257 51.2307 53.6127 55.7847 57.761 59.556 61.1839 62.6581 63.9916 65.196 66.2824 67.2608 68.1405 68.93 69.6372 70.2694 70.8333 71.3351 71.7805 72.1748 72.523 72.8296 73.0987 73.3343 73.5399 73.7187 73.8737 74.0077 74.1232 74.2222 74.307 74.3793 74.4407 74.4926 74.5365 74.5733 74.6041 74.6299 74.6513 74.669 74.6836 74.6956 74.7055 74.7135 74.72 74.7253 74.7295 74.7329 74.7357 74.7379 74.7396 74.741 74.742 74.7429 74.7435 74.7441 74.7445 74.7448 74.745 74.7452 74.7453 74.7454 74.7455 74.7456 74.7456 74.7456 74.7457 74.7457 74.7457 74.7457 74.7457 74.7457 74.7457 74.7457 74.7457 74.7457 74.7457 74.7457 74.7457 74.7457 74.7457 74.7457 74.7457 74.7457 74.7457 74.7457 74.7457 74.7457 74.7457 74.7457 74.7457 74.7457 74.7457 74.7457 74.7457 74.7457 74.7457 74.7457 74.7457 74.7457 74.7457 74.7457 74.7457 74.7457 74.7457 74.7457 74.7457 74.7457 74.7457 74.7457 74.7457 74.7457 74.7457 74.7457 74.7457 74.7457 74.7457 74.7457 74.7457 74.7457 74.7457 74.7457 74.7457 74.7457 74.7457 74.7457 74.7457 74.7457 74.7457 74.7457 74.7457 74.7457 74.7457 74.7457 74.7457 74.7457 74.7457 74.7457 74.7457 74.7457 74.7457 74.7457 74.7457 74.7457 74.7457 74.7457 74.7457 74.7457 74.7457 74.7457 74.7457 74.7457 74.7457 74.7457 74.7457 74.7457 74.7457 74.7457 74.7457 74.7457 74.7457 74.7457 74.7457 74.7457 74.7457 74.7457 74.7457 74.7457 74.7457 74.7457 74.7457 74.7457 74.7457 74.7457 74.7457 74.7458 74.7458 74.7458 74.7458 74.7458 74.7458 74.7458 74.7458 74.7458 74.7458 74.7459 74.7459 74.7459 74.746 74.7461 74.7462 74.7463 74.7464 74.7466 74.7468 74.7471 74.7474 74.7478 74.7483 74.749 74.7497 74.7506 74.7516 74.7529 74.7543 74.7561 74.7581 74.7605 74.7632 74.7663 74.7699 74.7739 74.7785 74.7836 74.7892 74.7954 74.8021 74.8093 74.8169 74.8248 74.8329 74.8409 74.8487 74.8558 74.8618 74.8662 74.8684 74.8674 74.8625 74.8523 74.8356 74.8108 74.7759 74.729 74.6675 74.5886 74.4893 74.3661 74.2153 74.0329 73.8151 73.5579 73.2581 72.913 72.5216 72.0849 71.6064 71.0926 70.5531 70 
20 23.8371 27.6226 31.3092 34.857 38.2353 41.423 44.4079 47.1854 49.7566 52.1269 54.3045 56.2995 58.1228 59.7856 61.2991 62.6741 63.9211 65.0498 66.0695 66.9889 67.8161 68.5588 69.2239 69.8183 70.348 70.8188 71.2362 71.6052 71.9304 72.2162 72.4665 72.6852 72.8755 73.0406 73.1834 73.3064 73.4121 73.5026 73.5797 73.6453 73.7008 73.7477 73.787 73.82 73.8476 73.8704 73.8894 73.905 73.9179 73.9284 73.937 73.944 73.9497 73.9542 73.9579 73.9608 73.9632 73.965 73.9665 73.9676 73.9685 73.9692 73.9698 73.9702 73.9706 73.9708 73.971 73.9712 73.9713 73.9714 73.9714 73.9715 73.9715 73.9715 73.9716 73.9716 73.9716 73.9716 73.9716 73.9716 73.9716 73.9716 73.9716 73.9716 73.9716 73.9716 73.9716 73.9716 73.9716 73.9716 73.9716 73.9716 73.9716 73.9716 73.9716 73.9716 73.9716 73.9716 73.9716 73.9716 73.9716 73.9716 73.9716 73.9716 73.9716 73.9716 73.9716 73.9716 73.9716 73.9716 73.9715 73.9715 73.9715 73.9715 73.9715 73.9715 73.9715 73.9715 73.9715 73.9715 73.9715 73.9715 73.9715 73.9715 73.9715 73.9715 73.9715 73.9715 73.9715 73.9715 73.9715 73.9715 73.9715 73.9715 73.9715 73.9715 73.9715 73.9715 73.9715 73.9715 73.9715 73.9715 73.9715 73.9716 73.9716 73.9716 73.9716 73.9716 73.9716 73.9716 73.9716 73.9716 73.9716 73.9716 73.9716 73.9716 73.9716 73.9716 73.9716 73.9716 73.9716 73.9716 73.9716 73.9716 73.9716 73.9716 73.9716 73.9716 73.9716 73.9716 73.9716 73.9716 73.9716 73.9716 73.9716 73.9716 73.9716 73.9716 73.9716 73.9716 73.9716 73.9716 73.9716 73.9716 73.9716 73.9716 73.9716 73.9716 73.9716 73.9717 73.9717 73.9717 73.9717 73.9718 73.9718 73.9719 73.972 73.9721 73.9722 73.9723 73.9725 73.9728 73.9731 73.9734 73.9739 73.9744 73.9751 73.9759 73.9769 73.978 73.9794 73.981 73.9829 73.9851 73.9877 73.9907 73.9941 73.9981 74.0026 74.0076 74.0133 74.0196 74.0265 74.0341 74.0423 74.0511 74.0603 74.0698 74.0795 74.0891 74.0983 74.1067 74.1137 74.1188 74.1212 74.12 74.1141 74.1023 74.0831 74.0548 74.0155 73.963 73.8948 73.8083 73.7005 73.5684 73.4089 73.2188 72.9954 72.7364 72.4403 72.1069 71.7376 71.3357 70.9068 70.4585 70 
20 23.6055 27.1695 30.6534 34.0236 37.2531 40.3218 43.2166 45.9303 48.4608 50.81 52.9824 54.9848 56.8251 58.512 60.0545 61.4618 62.7427 63.9061 64.9603 65.9133 66.7728 67.5462 68.2402 68.8614 69.4159 69.9095 70.3476 70.7353 71.0774 71.3783 71.6421 71.8726 72.0735 72.2479 72.3987 72.5288 72.6406 72.7364 72.818 72.8875 72.9463 72.996 73.0377 73.0727 73.1019 73.1262 73.1463 73.1629 73.1766 73.1877 73.1969 73.2043 73.2103 73.2151 73.219 73.2221 73.2246 73.2266 73.2282 73.2294 73.2304 73.2311 73.2317 73.2321 73.2325 73.2328 73.233 73.2331 73.2333 73.2333 73.2334 73.2335 73.2335 73.2335 73.2336 73.2336 73.2336 73.2336 73.2336 73.2336 73.2336 73.2336 73.2336 73.2336 73.2336 73.2336 73.2336 73.2336 73.2336 73.2336 73.2336 73.2336 73.2336 73.2336 73.2336 73.2336 73.2336 73.2336 73.2336 73.2336 73.2336 73.2336 73.2336 73.2336 73.2336 73.2336 73.2336 73.2335 73.2335 73.2335 73.2335 73.2335 73.2335 73.2335 73.2335 73.2335 73.2335 73.2335 73.2335 73.2335 73.2335 73.2335 73.2335 73.2335 73.2335 73.2335 73.2335 73.2335 73.2335 73.2335 73.2335 73.2335 73.2335 73.2335 73.2335 73.2335 73.2335 73.2335 73.2335 73.2335 73.2335 73.2335 73.2335 73.2335 73.2335 73.2335 73.2336 73.2336 73.2336 73.2336 73.2336 73.2336 73.2336 73.2336 73.2336 73.2336 73.2336 73.2336 73.2336 73.2336 73.2336 73.2336 73.2336 73.2336 73.2336 73.2336 73.2336 73.2336 73.2336 73.2336 73.2336 73.2336 73.2336 73.2336 73.2336 73.2336 73.2336 73.2336 73.2336 73.2336 73.2336 73.2336 73.2336 73.2336 73.2336 73.2336 73.2336 73.2336 73.2337 73.2337 73.2337 73.2337 73.2338 73.2338 73.2338 73.2339 73.234 73.2341 73.2342 73.2344 73.2346 73.2349 73.2352 73.2356 73.2361 73.2367 73.2374 73.2382 73.2393 73.2405 73.242 73.2438 73.2458 73.2482 73.2511 73.2543 73.2581 73.2624 73.2674 73.2729 73.2792 73.2862 73.294 73.3025 73.3117 73.3217 73.3322 73.3433 73.3548 73.3664 73.3779 73.3888 73.3988 73.4072 73.4134 73.4165 73.4155 73.4094 73.3967 73.3759 73.3454 73.3031 73.2471 73.1749 73.0841 72.9723 72.8369 72.6756 72.4864 72.2676 72.0186 71.7396 71.4321 71.0991 70.7452 70.3765 70 
20 23.412 26.7898 30.1013 33.3179 36.4156 39.3759 42.1853 44.8354 47.3218 49.6439 51.8036 53.805 55.6535 57.3557 58.9188 60.3503 61.6579 62.8491 63.9317 64.9128 65.7998 66.5995 67.3185 67.9631 68.5394 69.0531 69.5096 69.9141 70.2714 70.5859 70.8619 71.1033 71.3138 71.4966 71.6549 71.7914 71.9089 72.0094 72.0953 72.1683 72.2302 72.2824 72.3264 72.3632 72.394 72.4196 72.4408 72.4583 72.4727 72.4845 72.4941 72.5019 72.5083 72.5134 72.5175 72.5208 72.5234 72.5255 72.5271 72.5284 72.5294 72.5302 72.5308 72.5313 72.5317 72.532 72.5322 72.5324 72.5325 72.5326 72.5327 72.5327 72.5328 72.5328 72.5328 72.5328 72.5328 72.5329 72.5329 72.5329 72.5329 72.5329 72.5329 72.5329 72.5329 72.5329 72.5329 72.5329 72.5329 72.5329 72.5329 72.5329 72.5329 72.5328 72.5328 72.5328 72.5328 72.5328 72.5328 72.5328 72.5328 72.5328 72.5328 72.5328 72.5328 72.5328 72.5328 72.5328 72.5328 72.5328 72.5328 72.5328 72.5328 72.5328 72.5328 72.5328 72.5327 72.5327 72.5327 72.5327 72.5327 72.5327 72.5327 72.5327 72.5327 72.5327 72.5327 72.5327 72.5327 72.5327 72.5327 72.5327 72.5327 72.5327 72.5327 72.5327 72.5327 72.5328 72.5328 72.5328 72.5328 72.5328 72.5328 72.5328 72.5328 72.5328 72.5328 72.5328 72.5328 72.5328 72.5328 72.5328 72.5328 72.5328 72.5328 72.5328 72.5328 72.5328 72.5328 72.5328 72.5329 72.5329 72.5329 72.5329 72.5329 72.5329 72.5329 72.5329 72.5329 72.5329 72.5329 72.5329 72.5329 72.5329 72.5329 72.5329 72.5329 72.5329 72.5329 72.5329 72.5329 72.5329 72.5329 72.5329 72.5329 72.5329 72.5329 72.5329 72.5329 72.5329 72.533 72.533 72.533 72.5331 72.5331 72.5332 72.5333 72.5334 72.5335 72.5337 72.5339 72.5342 72.5346 72.535 72.5355 72.5361 72.5369 72.5378 72.539 72.5403 72.5419 72.5438 72.546 72.5486 72.5517 72.5552 72.5593 72.564 72.5694 72.5755 72.5824 72.5901 72.5987 72.6081 72.6185 72.6297 72.6417 72.6544 72.6678 72.6816 72.6955 72.7092 72.7223 72.7344 72.7447 72.7525 72.757 72.7571 72.7516 72.7391 72.7182 72.6872 72.6443 72.5874 72.5146 72.4239 72.3133 72.1809 72.0253 71.8455 71.6412 71.4127 71.1617 70.8907 70.6035 70.3047 70 