# vtk DataFile Version 3.0
2D simulation data
ASCII
DATASET STRUCTURED_POINTS
DIMENSIONS 258 258 1
ORIGIN 0 0 0
SPACING 1 1 1
POINT_DATA 66564
SCALARS simulation_data float 1
LOOKUP_TABLE default
85 85 85 85 85 85 85 85 85 85 85 85 85 85 85 85 85 85 85 85 85 85 85 85 85 85 85 85 85 85 85 85 85 85 85 85 85 85 85 85 85 85 85 85 85 85 85 85 85 85 85 85 85 85 85 85 85 85 85 85 85 85 85 85 85 85 85 85 85 85 85 85 85 85 85 85 85 85 85 85 85 85 85 85 85 85 85 85 85 85 85 85 85 85 85 85 85 85 85 85 85 85 85 85 85 85 85 85 85 85 85 85 85 85 85 85 85 85 85 85 85 85 85 85 85 85 85 85 85 85 85 85 85 85 85 85 85 85 85 85 85 85 85 85 85 85 85 85 85 85 85 85 85 85 85 85 85 85 85 85 85 85 85 85 85 85 85 85 85 85 85 85 85 85 85 85 85 85 85 85 85 85 85 85 85 85 85 85 85 85 85 85 85 85 85 85 85 85 85 85 85 85 85 85 85 85 85 85 85 85 85 85 85 85 85 85 85 85 85 85 85 85 85 85 85 85 85 85 85 85 85 85 85 85 85 85 85 85 85 85 85 85 85 85 85 85 85 85 85 85 85 85 85 85 85 85 85 85 
20 52.5106 65.3686 71.4214 74.7399 76.7891 78.1705 79.163 79.9106 80.4943 80.963 81.3479 81.6699 81.9433 82.1785 82.383 82.5625 82.7212 82.8626 82.9893 83.1035 83.2068 83.3007 83.3863 83.4647 83.5365 83.6025 83.6634 83.7195 83.7714 83.8194 83.8639 83.9052 83.9434 83.979 84.012 84.0426 84.0712 84.0976 84.1223 84.1451 84.1664 84.1861 84.2045 84.2215 84.2372 84.2519 84.2654 84.278 84.2896 84.3003 84.3102 84.3194 84.3279 84.3356 84.3428 84.3494 84.3554 84.361 84.3661 84.3707 84.375 84.3789 84.3824 84.3857 84.3886 84.3913 84.3937 84.3959 84.3979 84.3996 84.4012 84.4026 84.404 84.4051 84.4061 84.407 84.4078 84.4085 84.4092 84.4096 84.4102 84.4105 84.4109 84.4111 84.4114 84.4115 84.4117 84.4118 84.4119 84.4119 84.412 84.412 84.412 84.4119 84.4119 84.4118 84.4118 84.4116 84.4116 84.4115 84.4114 84.4112 84.4112 84.411 84.411 84.4108 84.4108 84.4106 84.4105 84.4103 84.4103 84.4101 84.4101 84.4099 84.4099 84.4098 84.4098 84.4096 84.4096 84.4095 84.4095 84.4094 84.4095 84.4093 84.4094 84.4093 84.4094 84.4093 84.4094 84.4093 84.4095 84.4094 84.4095 84.4095 84.4097 84.4096 84.4098 84.4098 84.41 84.41 84.4102 84.4102 84.4104 84.4104 84.4106 84.4107 84.4109 84.4109 84.4112 84.4112 84.4115 84.4115 84.4118 84.4119 84.4121 84.4122 84.4124 84.4125 84.4127 84.4128 84.4131 84.4132 84.4134 84.4135 84.4137 84.4138 84.4141 84.4142 84.4144 84.4145 84.4147 84.4148 84.415 84.4151 84.4154 84.4155 84.4157 84.4158 84.416 84.4161 84.4163 84.4164 84.4166 84.4168 84.417 84.4171 84.4173 84.4175 84.4177 84.4178 84.418 84.4182 84.4184 84.4186 84.4188 84.419 84.4192 84.4193 84.4196 84.4197 84.4199 84.4201 84.4203 84.4205 84.4206 84.4208 84.4209 84.421 84.421 84.4211 84.421 84.421 84.4208 84.4206 84.4203 84.4199 84.4194 84.4187 84.4179 84.4169 84.4157 84.4143 84.4126 84.4106 84.4082 84.4054 84.4022 84.3984 84.394 84.389 84.3831 84.3763 84.3685 84.3595 84.349 84.3369 84.3229 84.3067 84.2879 84.2659 84.2401 84.2098 84.174 84.1312 84.0799 84.0175 83.9408 83.8449 83.7227 83.5627 83.3463 83.0403 82.5803 81.8274 80.4436 77.4894 70 
20 39.6738 52.5423 60.5769 65.7488 69.2461 71.7297 73.5707 74.9848 76.1033 77.0095 77.7586 78.3881 78.9246 79.3874 79.7907 80.1453 80.4594 80.7396 80.9909 81.2175 81.4227 81.6094 81.7796 81.9355 82.0784 82.2099 82.3311 82.443 82.5464 82.6421 82.7308 82.8131 82.8894 82.9603 83.0261 83.0873 83.1442 83.1971 83.2462 83.2919 83.3343 83.3737 83.4103 83.4442 83.4757 83.5049 83.532 83.5571 83.5802 83.6017 83.6215 83.6398 83.6566 83.6722 83.6865 83.6997 83.7117 83.7229 83.733 83.7424 83.7508 83.7586 83.7657 83.7722 83.778 83.7834 83.7882 83.7926 83.7965 83.8001 83.8032 83.8061 83.8086 83.811 83.813 83.8148 83.8164 83.8178 83.819 83.8201 83.821 83.8218 83.8224 83.8231 83.8234 83.8239 83.8241 83.8244 83.8245 83.8247 83.8246 83.8248 83.8246 83.8247 83.8244 83.8245 83.8242 83.8241 83.8238 83.8238 83.8234 83.8233 83.823 83.8229 83.8225 83.8224 83.822 83.822 83.8216 83.8215 83.8211 83.8211 83.8207 83.8207 83.8204 83.8204 83.82 83.8201 83.8198 83.8198 83.8196 83.8197 83.8194 83.8195 83.8193 83.8195 83.8193 83.8195 83.8193 83.8195 83.8194 83.8197 83.8196 83.8199 83.8198 83.8201 83.8201 83.8204 83.8204 83.8208 83.8208 83.8212 83.8213 83.8217 83.8218 83.8222 83.8223 83.8227 83.8229 83.8233 83.8235 83.8239 83.8241 83.8246 83.8247 83.8252 83.8254 83.8259 83.826 83.8265 83.8267 83.8272 83.8274 83.8278 83.8281 83.8285 83.8287 83.8292 83.8294 83.8298 83.83 83.8305 83.8307 83.8311 83.8314 83.8318 83.832 83.8324 83.8327 83.8331 83.8333 83.8337 83.834 83.8344 83.8346 83.835 83.8353 83.8357 83.836 83.8364 83.8368 83.8372 83.8375 83.8379 83.8383 83.8387 83.8391 83.8395 83.8399 83.8403 83.8406 83.841 83.8414 83.8417 83.842 83.8423 83.8426 83.8428 83.8429 83.8429 83.8429 83.8428 83.8425 83.8421 83.8415 83.8407 83.8397 83.8384 83.8368 83.8348 83.8324 83.8296 83.8262 83.8222 83.8175 83.812 83.8056 83.7981 83.7894 83.7794 83.7677 83.7543 83.7388 83.7209 83.7002 83.6763 83.6486 83.6166 83.5793 83.5359 83.4852 83.4256 83.3552 83.2714 83.1711 83.0497 82.9011 82.7165 82.4832 82.182 81.7825 81.2349 80.4535 79.2859 77.4577 74.514 70 
20 33.6421 44.5499 52.595 58.4322 62.7163 65.9313 68.4048 70.3542 71.9241 73.2127 74.2882 75.1986 75.979 76.6551 77.2465 77.7678 78.2308 78.6446 79.0164 79.3521 79.6565 79.9336 80.1867 80.4184 80.6312 80.827 81.0075 81.1743 81.3285 81.4713 81.6036 81.7264 81.8404 81.9462 82.0446 82.136 82.221 82.3 82.3735 82.4417 82.5051 82.5641 82.6188 82.6696 82.7167 82.7604 82.8009 82.8384 82.8731 82.9051 82.9348 82.9622 82.9874 83.0107 83.0321 83.0518 83.0699 83.0865 83.1017 83.1156 83.1284 83.14 83.1507 83.1602 83.1691 83.177 83.1843 83.1908 83.1968 83.202 83.2069 83.211 83.215 83.2183 83.2215 83.224 83.2265 83.2285 83.2305 83.2319 83.2334 83.2345 83.2356 83.2363 83.2372 83.2375 83.2382 83.2383 83.2387 83.2387 83.239 83.2388 83.2389 83.2386 83.2387 83.2383 83.2382 83.2378 83.2377 83.2372 83.2371 83.2365 83.2364 83.2358 83.2357 83.2351 83.235 83.2344 83.2343 83.2337 83.2337 83.2331 83.2331 83.2325 83.2325 83.232 83.232 83.2315 83.2316 83.2312 83.2313 83.2309 83.2311 83.2307 83.2309 83.2306 83.2309 83.2306 83.2309 83.2307 83.2311 83.2309 83.2313 83.2312 83.2317 83.2316 83.2321 83.2321 83.2326 83.2327 83.2332 83.2333 83.2339 83.234 83.2346 83.2348 83.2354 83.2356 83.2363 83.2365 83.2372 83.2374 83.2381 83.2384 83.2391 83.2393 83.2401 83.2403 83.2411 83.2413 83.2421 83.2424 83.2431 83.2434 83.2441 83.2444 83.2451 83.2454 83.2461 83.2464 83.2471 83.2474 83.248 83.2484 83.249 83.2494 83.25 83.2503 83.251 83.2513 83.2519 83.2523 83.2529 83.2533 83.2539 83.2544 83.255 83.2554 83.256 83.2565 83.2571 83.2576 83.2582 83.2587 83.2594 83.2599 83.2606 83.2611 83.2618 83.2623 83.2629 83.2635 83.264 83.2645 83.265 83.2654 83.2658 83.2661 83.2663 83.2664 83.2664 83.2662 83.2658 83.2652 83.2644 83.2632 83.2617 83.2598 83.2574 83.2545 83.251 83.2468 83.2418 83.2359 83.229 83.2208 83.2113 83.2002 83.1874 83.1725 83.1554 83.1355 83.1126 83.0862 83.0557 83.0204 82.9797 82.9326 82.8779 82.8142 82.74 82.6529 82.5504 82.429 82.2841 82.1097 81.8978 81.6372 81.3122 80.8999 80.3671 79.6634 78.7133 77.405 75.5873 73.1091 70 
20 30.3446 39.42 46.8207 52.6684 57.2552 60.8738 63.7626 66.1024 68.0254 69.6284 70.9819 72.1384 73.1367 74.0067 74.7711 75.4477 76.0505 76.5906 77.0769 77.5169 77.9166 78.2808 78.6139 78.9192 79.1999 79.4583 79.6968 79.9172 80.1211 80.31 80.4852 80.6478 80.7988 80.9391 81.0695 81.1907 81.3034 81.4083 81.5057 81.5963 81.6805 81.7587 81.8313 81.8988 81.9614 82.0194 82.0732 82.123 82.1691 82.2118 82.2511 82.2875 82.321 82.352 82.3804 82.4067 82.4306 82.4528 82.4729 82.4916 82.5084 82.524 82.538 82.5509 82.5625 82.5732 82.5827 82.5915 82.5992 82.6064 82.6126 82.6185 82.6234 82.6281 82.632 82.6358 82.6387 82.6417 82.6439 82.6462 82.6479 82.6496 82.6507 82.652 82.6527 82.6537 82.654 82.6547 82.6548 82.6552 82.655 82.6553 82.6549 82.6551 82.6546 82.6546 82.654 82.6539 82.6532 82.6531 82.6524 82.6523 82.6515 82.6513 82.6505 82.6504 82.6496 82.6494 82.6486 82.6485 82.6477 82.6476 82.6469 82.6469 82.6461 82.6462 82.6455 82.6456 82.6449 82.6451 82.6445 82.6447 82.6442 82.6444 82.644 82.6443 82.6439 82.6443 82.644 82.6445 82.6442 82.6447 82.6446 82.6451 82.645 82.6456 82.6456 82.6463 82.6463 82.647 82.6471 82.6479 82.648 82.6489 82.649 82.6499 82.6501 82.651 82.6513 82.6522 82.6525 82.6534 82.6538 82.6547 82.6551 82.656 82.6564 82.6574 82.6578 82.6587 82.6591 82.6601 82.6605 82.6615 82.6619 82.6628 82.6632 82.6642 82.6646 82.6655 82.6659 82.6668 82.6673 82.6681 82.6686 82.6695 82.6699 82.6708 82.6713 82.6721 82.6726 82.6734 82.6739 82.6747 82.6753 82.6761 82.6767 82.6775 82.6781 82.679 82.6796 82.6804 82.6811 82.682 82.6827 82.6835 82.6843 82.6851 82.6859 82.6867 82.6875 82.6883 82.689 82.6897 82.6903 82.691 82.6914 82.6919 82.6922 82.6923 82.6923 82.6921 82.6916 82.6908 82.6897 82.6883 82.6863 82.6838 82.6808 82.677 82.6724 82.667 82.6604 82.6527 82.6436 82.633 82.6205 82.6061 82.5893 82.5699 82.5475 82.5215 82.4917 82.4572 82.4175 82.3716 82.3187 82.2575 82.1867 82.1045 82.0087 81.8969 81.7657 81.611 81.4274 81.2082 80.9441 80.6232 80.2289 79.7391 79.1229 78.3389 77.3316 76.0337 74.3777 72.3352 70 
20 28.3162 35.9645 42.5992 48.1648 52.762 56.5452 59.6689 62.2664 64.4459 66.2924 67.8718 69.235 70.4216 71.4626 72.3823 73.2001 73.9314 74.5888 75.1824 75.7206 76.2105 76.6578 77.0674 77.4434 77.7894 78.1083 78.4029 78.6753 78.9275 79.1614 79.3784 79.5799 79.7671 79.9411 80.1029 80.2533 80.3933 80.5234 80.6445 80.757 80.8617 80.9589 81.0493 81.1331 81.211 81.2831 81.3501 81.412 81.4695 81.5225 81.5716 81.6168 81.6586 81.697 81.7325 81.7651 81.7951 81.8225 81.8478 81.8707 81.8919 81.9111 81.9288 81.9446 81.9593 81.9724 81.9845 81.9951 82.0051 82.0137 82.0218 82.0287 82.0352 82.0407 82.0459 82.0501 82.0543 82.0575 82.0607 82.0631 82.0656 82.0673 82.0692 82.0703 82.0717 82.0723 82.0733 82.0735 82.0742 82.0741 82.0745 82.0741 82.0744 82.0738 82.0739 82.0732 82.0731 82.0723 82.0722 82.0713 82.0711 82.0701 82.0699 82.0689 82.0687 82.0677 82.0675 82.0665 82.0663 82.0653 82.0652 82.0642 82.0641 82.0632 82.0632 82.0623 82.0623 82.0615 82.0616 82.0609 82.0611 82.0604 82.0607 82.0601 82.0604 82.0599 82.0604 82.0599 82.0605 82.0601 82.0607 82.0605 82.0611 82.061 82.0617 82.0616 82.0625 82.0625 82.0634 82.0634 82.0644 82.0645 82.0655 82.0657 82.0668 82.0671 82.0682 82.0685 82.0697 82.07 82.0712 82.0716 82.0728 82.0732 82.0744 82.0749 82.0761 82.0766 82.0779 82.0784 82.0796 82.0801 82.0813 82.0818 82.083 82.0836 82.0848 82.0853 82.0865 82.087 82.0882 82.0887 82.0898 82.0904 82.0915 82.0921 82.0932 82.0938 82.0948 82.0955 82.0965 82.0972 82.0982 82.0989 82.0999 82.1006 82.1016 82.1024 82.1034 82.1042 82.1053 82.1061 82.1072 82.1081 82.1092 82.1101 82.1112 82.1121 82.1132 82.1141 82.1152 82.1161 82.1171 82.1179 82.1188 82.1195 82.1203 82.1208 82.1212 82.1214 82.1215 82.1212 82.1207 82.1198 82.1185 82.1167 82.1144 82.1114 82.1077 82.1031 82.0976 82.0909 82.083 82.0736 82.0625 82.0495 82.0344 82.0168 81.9964 81.9727 81.9454 81.9139 81.8775 81.8357 81.7875 81.7319 81.6679 81.5941 81.5087 81.4099 81.2953 81.1618 81.006 80.8232 80.6078 80.3526 80.0484 79.6834 79.2422 78.7052 78.0475 77.238 76.2411 75.021 73.5545 71.8543 70 
20 26.9556 33.5224 39.4464 44.6291 49.0821 52.8755 56.1002 58.8473 61.1983 63.2224 64.9764 66.5067 67.8506 69.0382 70.0938 71.0372 71.8845 72.6489 73.3413 73.9709 74.5452 75.0707 75.5526 75.9958 76.4041 76.781 77.1294 77.452 77.7509 78.0283 78.2857 78.525 78.7474 78.9543 79.1467 79.3257 79.4922 79.6472 79.7914 79.9255 80.0502 80.1661 80.2738 80.3738 80.4666 80.5528 80.6326 80.7066 80.775 80.8384 80.8969 80.951 81.0008 81.0468 81.0891 81.1281 81.1638 81.1967 81.2267 81.2543 81.2794 81.3025 81.3234 81.3426 81.3598 81.3758 81.3899 81.403 81.4144 81.4251 81.4344 81.4431 81.4504 81.4574 81.4631 81.4687 81.4731 81.4775 81.4808 81.4842 81.4865 81.4891 81.4907 81.4927 81.4936 81.495 81.4955 81.4965 81.4965 81.4971 81.4968 81.4972 81.4966 81.4967 81.4959 81.496 81.495 81.4949 81.4938 81.4936 81.4924 81.4922 81.491 81.4907 81.4895 81.4892 81.488 81.4877 81.4865 81.4863 81.4851 81.485 81.4838 81.4837 81.4826 81.4826 81.4816 81.4817 81.4807 81.4809 81.4801 81.4803 81.4796 81.4799 81.4793 81.4798 81.4792 81.4798 81.4793 81.48 81.4796 81.4804 81.4801 81.481 81.4809 81.4818 81.4818 81.4828 81.4829 81.484 81.4841 81.4854 81.4856 81.4868 81.4871 81.4885 81.4888 81.4902 81.4906 81.492 81.4925 81.494 81.4945 81.496 81.4965 81.498 81.4986 81.5001 81.5007 81.5022 81.5028 81.5043 81.505 81.5064 81.5071 81.5086 81.5092 81.5107 81.5113 81.5127 81.5134 81.5148 81.5155 81.5168 81.5176 81.5189 81.5196 81.5209 81.5217 81.5229 81.5237 81.525 81.5258 81.527 81.5279 81.5291 81.53 81.5313 81.5322 81.5335 81.5345 81.5358 81.5368 81.5381 81.5392 81.5405 81.5417 81.543 81.5441 81.5455 81.5466 81.5479 81.5489 81.5501 81.5511 81.5521 81.5529 81.5537 81.5541 81.5545 81.5545 81.5544 81.5538 81.5528 81.5514 81.5494 81.5467 81.5433 81.539 81.5338 81.5273 81.5196 81.5104 81.4995 81.4866 81.4716 81.454 81.4335 81.4097 81.3823 81.3505 81.3139 81.2718 81.2233 81.1675 81.1033 81.0295 80.9445 80.8465 80.7334 80.6027 80.4511 80.275 80.0697 79.8296 79.5475 79.2149 78.8209 78.3524 77.7932 77.1245 76.3252 75.3742 74.2552 72.9654 71.5275 70 
20 25.9838 31.7226 37.0346 41.8223 46.0609 49.7733 53.0081 55.8231 58.2763 60.4207 62.3031 63.963 65.434 66.7437 67.9154 68.9683 69.9183 70.7788 71.561 72.2742 72.9266 73.5247 74.0745 74.5809 75.0482 75.4801 75.8799 76.2504 76.5941 76.9132 77.2098 77.4855 77.742 77.9807 78.2028 78.4096 78.6021 78.7812 78.948 79.103 79.2474 79.3815 79.5062 79.622 79.7296 79.8293 79.9219 80.0076 80.087 80.1603 80.2283 80.2909 80.3488 80.402 80.4512 80.4963 80.5379 80.5758 80.6109 80.6427 80.6721 80.6986 80.7231 80.7451 80.7655 80.7835 80.8003 80.8151 80.8288 80.8408 80.852 80.8615 80.8706 80.8781 80.8853 80.8911 80.8969 80.9013 80.9058 80.909 80.9124 80.9147 80.9173 80.9187 80.9206 80.9214 80.9227 80.9229 80.9238 80.9236 80.9242 80.9236 80.9239 80.923 80.9231 80.922 80.9219 80.9206 80.9205 80.9191 80.9188 80.9174 80.9171 80.9156 80.9153 80.9138 80.9135 80.912 80.9117 80.9103 80.9101 80.9086 80.9085 80.9072 80.9071 80.9058 80.9059 80.9047 80.9049 80.9038 80.9041 80.9031 80.9035 80.9026 80.9031 80.9024 80.903 80.9024 80.9032 80.9027 80.9035 80.9032 80.9042 80.9039 80.905 80.9049 80.9061 80.9061 80.9074 80.9075 80.9089 80.9091 80.9106 80.9109 80.9125 80.9128 80.9145 80.9149 80.9166 80.9171 80.9189 80.9194 80.9212 80.9218 80.9236 80.9243 80.9261 80.9268 80.9286 80.9293 80.9311 80.9319 80.9337 80.9344 80.9362 80.937 80.9387 80.9395 80.9412 80.942 80.9437 80.9445 80.9461 80.947 80.9485 80.9494 80.951 80.9518 80.9534 80.9543 80.9558 80.9567 80.9582 80.9592 80.9607 80.9617 80.9632 80.9643 80.9658 80.9669 80.9684 80.9696 80.9712 80.9724 80.974 80.9753 80.9769 80.9782 80.9798 80.9812 80.9827 80.984 80.9855 80.9868 80.9881 80.9892 80.9903 80.9911 80.9919 80.9923 80.9925 80.9923 80.9918 80.9907 80.9892 80.987 80.9841 80.9804 80.9756 80.9698 80.9626 80.954 80.9437 80.9314 80.917 80.9 80.8803 80.8572 80.8305 80.7997 80.764 80.7229 80.6757 80.6214 80.559 80.4874 80.4051 80.3107 80.2021 80.0772 79.9333 79.7673 79.5754 79.3532 79.0951 78.7948 78.4443 78.0345 77.5544 76.9918 76.3331 75.5649 74.6759 73.6606 72.5247 71.2906 70 
20 25.2566 30.3493 35.1463 39.5639 43.5648 47.1477 50.3345 53.1593 55.6613 57.8794 59.8502 61.6063 63.1764 64.5851 65.8536 66.9999 68.0392 68.9845 69.847 70.6359 71.3595 72.0246 72.6373 73.2027 73.7252 74.209 74.6573 75.0734 75.4597 75.8188 76.1528 76.4636 76.7528 77.0222 77.273 77.5067 77.7242 77.9269 78.1155 78.2911 78.4544 78.6064 78.7476 78.879 79.0008 79.114 79.2188 79.3161 79.4061 79.4895 79.5664 79.6377 79.7032 79.7638 79.8194 79.8709 79.9178 79.9612 80.0007 80.0372 80.0702 80.1007 80.1282 80.1535 80.1762 80.1972 80.2158 80.233 80.2481 80.2622 80.2743 80.2858 80.2954 80.3046 80.3121 80.3194 80.3251 80.3309 80.3351 80.3396 80.3426 80.346 80.348 80.3505 80.3517 80.3535 80.354 80.3552 80.3551 80.3559 80.3554 80.3558 80.3549 80.3551 80.3539 80.3539 80.3525 80.3523 80.3507 80.3504 80.3488 80.3484 80.3467 80.3463 80.3445 80.3442 80.3424 80.3421 80.3403 80.3401 80.3384 80.3382 80.3365 80.3364 80.3349 80.3349 80.3334 80.3336 80.3322 80.3325 80.3313 80.3317 80.3306 80.3311 80.3302 80.3308 80.33 80.3308 80.3302 80.3311 80.3306 80.3317 80.3314 80.3326 80.3324 80.3338 80.3337 80.3352 80.3352 80.3368 80.337 80.3387 80.339 80.3408 80.3412 80.343 80.3435 80.3455 80.346 80.3481 80.3487 80.3508 80.3515 80.3536 80.3543 80.3564 80.3572 80.3594 80.3602 80.3623 80.3632 80.3653 80.3662 80.3683 80.3692 80.3712 80.3722 80.3742 80.3751 80.3771 80.378 80.38 80.3809 80.3828 80.3838 80.3856 80.3867 80.3885 80.3895 80.3913 80.3923 80.3941 80.3952 80.3969 80.3981 80.3998 80.401 80.4028 80.4041 80.4058 80.4072 80.409 80.4104 80.4122 80.4137 80.4155 80.4171 80.4189 80.4205 80.4223 80.4239 80.4257 80.4272 80.4289 80.4303 80.4317 80.4329 80.4341 80.4349 80.4356 80.4358 80.4358 80.4353 80.4344 80.4328 80.4305 80.4274 80.4234 80.4183 80.412 80.4042 80.3948 80.3835 80.3702 80.3544 80.3359 80.3142 80.289 80.2598 80.226 80.187 80.1422 80.0906 80.0314 79.9634 79.8856 79.7964 79.6942 79.5771 79.4429 79.2889 79.112 78.9087 78.6748 78.4052 78.0941 77.735 77.32 76.8406 76.2878 75.6525 74.9265 74.1047 73.1873 72.1827 71.1102 70 
20 24.6931 29.2711 33.6369 37.7214 41.4857 44.9169 48.0212 50.8166 53.3282 55.5835 57.6098 59.4333 61.0776 62.5641 63.9113 65.1356 66.2511 67.2702 68.2035 69.06 69.8479 70.574 71.2444 71.8643 72.4383 72.9705 73.4645 73.9234 74.3502 74.7472 75.1168 75.461 75.7817 76.0805 76.359 76.6185 76.8603 77.0856 77.2954 77.4908 77.6727 77.8419 77.9993 78.1455 78.2815 78.4075 78.5246 78.633 78.7336 78.8264 78.9125 78.9918 79.0652 79.1326 79.195 79.2521 79.3049 79.3531 79.3975 79.4379 79.4752 79.5088 79.5399 79.5678 79.5936 79.6165 79.6378 79.6565 79.674 79.689 79.7032 79.7153 79.7267 79.7362 79.7454 79.7526 79.7599 79.7654 79.771 79.775 79.7793 79.782 79.7853 79.787 79.7894 79.7902 79.7918 79.792 79.7931 79.7926 79.7933 79.7924 79.7927 79.7914 79.7914 79.7899 79.7897 79.788 79.7877 79.7858 79.7854 79.7834 79.783 79.7809 79.7805 79.7784 79.778 79.776 79.7756 79.7736 79.7733 79.7714 79.7712 79.7693 79.7693 79.7675 79.7676 79.766 79.7662 79.7647 79.7651 79.7638 79.7643 79.7631 79.7638 79.7628 79.7637 79.7628 79.7639 79.7632 79.7644 79.7639 79.7652 79.7649 79.7664 79.7662 79.7679 79.7678 79.7696 79.7698 79.7717 79.7719 79.774 79.7744 79.7765 79.777 79.7792 79.7799 79.7822 79.7829 79.7852 79.786 79.7884 79.7893 79.7917 79.7926 79.7951 79.796 79.7985 79.7995 79.8019 79.803 79.8054 79.8064 79.8088 79.8099 79.8122 79.8133 79.8156 79.8167 79.819 79.8201 79.8223 79.8234 79.8256 79.8267 79.8288 79.83 79.8321 79.8333 79.8353 79.8365 79.8386 79.8399 79.8419 79.8432 79.8452 79.8466 79.8487 79.8502 79.8522 79.8538 79.8558 79.8575 79.8596 79.8613 79.8634 79.8652 79.8673 79.8692 79.8713 79.873 79.8751 79.8768 79.8786 79.8802 79.8818 79.883 79.8842 79.8849 79.8855 79.8855 79.8852 79.8843 79.8828 79.8804 79.8773 79.8731 79.8678 79.8611 79.8529 79.8429 79.8309 79.8166 79.7998 79.7799 79.7568 79.7298 79.6985 79.6623 79.6206 79.5726 79.5175 79.4543 79.3819 79.2992 79.2045 79.0964 78.9729 78.8317 78.6705 78.4862 78.2756 78.0347 77.7592 77.444 77.0835 76.6717 76.202 75.6679 75.0637 74.3849 73.6299 72.8017 71.9091 70.9677 70 
20 24.2443 28.4048 32.408 36.198 39.7385 43.0117 46.0149 48.7559 51.2494 53.514 55.5698 57.4367 59.134 60.6793 62.0888 63.3769 64.5563 65.6385 66.6333 67.5495 68.3948 69.1759 69.8987 70.5685 71.1899 71.7671 72.3036 72.8028 73.2675 73.7004 74.1038 74.4798 74.8304 75.1574 75.4622 75.7466 76.0116 76.2587 76.4889 76.7035 76.9032 77.0893 77.2622 77.4231 77.5724 77.7113 77.8399 77.9594 78.0699 78.1724 78.2669 78.3546 78.4352 78.5098 78.5782 78.6415 78.6993 78.7527 78.8013 78.8463 78.8869 78.9245 78.9583 78.9895 79.0174 79.0433 79.0661 79.0874 79.1058 79.1232 79.138 79.1521 79.1639 79.1752 79.1843 79.1933 79.2002 79.2072 79.2123 79.2178 79.2213 79.2255 79.2278 79.2308 79.2321 79.2342 79.2346 79.2361 79.2358 79.2367 79.2359 79.2363 79.235 79.2351 79.2335 79.2334 79.2314 79.2311 79.229 79.2286 79.2263 79.2258 79.2235 79.223 79.2206 79.2201 79.2177 79.2173 79.2149 79.2146 79.2123 79.212 79.2098 79.2097 79.2076 79.2076 79.2057 79.2059 79.2041 79.2044 79.2028 79.2033 79.2019 79.2026 79.2013 79.2022 79.2011 79.2022 79.2013 79.2026 79.2019 79.2034 79.2029 79.2046 79.2043 79.2061 79.206 79.2079 79.208 79.2101 79.2104 79.2126 79.213 79.2154 79.2159 79.2184 79.2191 79.2217 79.2224 79.2251 79.226 79.2287 79.2297 79.2324 79.2335 79.2363 79.2373 79.2402 79.2413 79.2441 79.2453 79.248 79.2493 79.252 79.2532 79.2559 79.2572 79.2598 79.2611 79.2637 79.265 79.2675 79.2688 79.2713 79.2726 79.275 79.2764 79.2787 79.2801 79.2824 79.2838 79.2861 79.2876 79.2899 79.2914 79.2936 79.2952 79.2975 79.2991 79.3015 79.3032 79.3055 79.3073 79.3097 79.3116 79.314 79.316 79.3184 79.3205 79.3229 79.3249 79.3273 79.3293 79.3316 79.3335 79.3355 79.3372 79.3389 79.3401 79.3413 79.3419 79.3423 79.3421 79.3414 79.3399 79.3377 79.3345 79.3303 79.3248 79.3179 79.3094 79.299 79.2865 79.2716 79.2539 79.2331 79.2087 79.1804 79.1474 79.1094 79.0656 79.0152 78.9574 78.8912 78.8155 78.729 78.6304 78.5181 78.3901 78.2445 78.0787 77.8902 77.6759 77.4323 77.1556 76.8416 76.4858 76.0833 75.6295 75.1199 74.5509 73.9206 73.2294 72.4814 71.6846 70.8519 70 
20 23.879 27.6951 31.3915 34.9229 38.257 41.3749 44.2689 46.9404 49.3972 51.6509 53.7158 55.6069 57.3392 58.9271 60.3844 61.7233 62.9553 64.0905 65.138 66.1061 67.002 67.8322 68.6023 69.3174 69.9823 70.6009 71.1768 71.7134 72.2137 72.6801 73.1154 73.5214 73.9004 74.254 74.5841 74.8921 75.1795 75.4474 75.6974 75.9302 76.1473 76.3493 76.5374 76.7122 76.8749 77.0257 77.166 77.2959 77.4164 77.5278 77.6311 77.7262 77.8144 77.8954 77.9703 78.0389 78.1024 78.1602 78.2137 78.2622 78.307 78.3474 78.3849 78.4183 78.4494 78.4769 78.5025 78.5249 78.5458 78.5639 78.5809 78.5953 78.6091 78.6203 78.6313 78.6399 78.6486 78.655 78.6617 78.6663 78.6715 78.6745 78.6784 78.6802 78.6829 78.6837 78.6856 78.6855 78.6868 78.686 78.6867 78.6854 78.6856 78.6839 78.6838 78.6817 78.6814 78.679 78.6786 78.676 78.6755 78.6728 78.6722 78.6695 78.6689 78.6662 78.6657 78.6629 78.6625 78.6598 78.6595 78.6569 78.6567 78.6542 78.6542 78.6519 78.652 78.6498 78.6501 78.6482 78.6487 78.6469 78.6476 78.6461 78.647 78.6457 78.6468 78.6457 78.647 78.6461 78.6477 78.647 78.6488 78.6484 78.6503 78.6501 78.6523 78.6522 78.6546 78.6547 78.6573 78.6576 78.6603 78.6608 78.6636 78.6642 78.6672 78.668 78.671 78.6719 78.675 78.676 78.6792 78.6803 78.6835 78.6847 78.6879 78.6891 78.6923 78.6936 78.6968 78.6982 78.7013 78.7027 78.7058 78.7072 78.7103 78.7117 78.7147 78.7161 78.7191 78.7205 78.7234 78.7249 78.7276 78.7291 78.7319 78.7334 78.7361 78.7376 78.7402 78.7418 78.7444 78.7461 78.7487 78.7504 78.753 78.7548 78.7574 78.7592 78.7619 78.7639 78.7665 78.7686 78.7713 78.7735 78.7762 78.7784 78.7812 78.7835 78.7862 78.7885 78.7912 78.7934 78.7959 78.798 78.8002 78.8019 78.8037 78.805 78.8061 78.8065 78.8067 78.8061 78.8049 78.8027 78.7997 78.7955 78.7901 78.7831 78.7745 78.7638 78.7511 78.7357 78.7175 78.696 78.6709 78.6415 78.6075 78.5681 78.5228 78.4707 78.411 78.3427 78.2648 78.176 78.0749 77.9599 77.8294 77.6814 77.5137 77.3238 77.109 76.8663 76.5924 76.284 75.9373 75.5487 75.115 74.633 74.101 73.5184 72.8869 72.2105 71.4966 70.7555 70 
20 23.5765 27.1043 30.5392 33.8438 36.9903 39.9601 42.7433 45.3374 47.7452 49.9738 52.0326 53.9326 55.6852 57.3021 58.7944 60.1728 61.4469 62.626 63.7181 64.7309 65.6709 66.5444 67.3566 68.1127 68.8169 69.4734 70.0856 70.6568 71.19 71.688 72.1529 72.5873 72.993 73.372 73.7258 74.0564 74.3649 74.6529 74.9215 75.1721 75.4056 75.6232 75.8256 76.0142 76.1893 76.3522 76.5032 76.6436 76.7734 76.8939 77.0051 77.1082 77.203 77.2909 77.3714 77.446 77.514 77.577 77.6343 77.6873 77.7351 77.7794 77.8192 77.8561 77.8888 77.9193 77.9461 77.9712 77.9929 78.0134 78.0307 78.0473 78.061 78.0742 78.0848 78.0954 78.1033 78.1116 78.1174 78.1237 78.1277 78.1325 78.1349 78.1384 78.1396 78.1421 78.1423 78.1439 78.1433 78.1442 78.1429 78.1433 78.1415 78.1415 78.1393 78.139 78.1364 78.136 78.1331 78.1325 78.1296 78.1289 78.1258 78.1251 78.122 78.1213 78.1182 78.1176 78.1146 78.1141 78.1111 78.1108 78.108 78.1078 78.1051 78.1051 78.1026 78.1028 78.1005 78.1009 78.0988 78.0995 78.0976 78.0985 78.0969 78.0981 78.0967 78.0981 78.097 78.0986 78.0977 78.0996 78.099 78.1011 78.1007 78.1031 78.1029 78.1055 78.1056 78.1083 78.1086 78.1115 78.112 78.1151 78.1158 78.119 78.1199 78.1232 78.1242 78.1277 78.1288 78.1323 78.1335 78.1371 78.1384 78.142 78.1434 78.1471 78.1485 78.1521 78.1537 78.1572 78.1588 78.1623 78.1639 78.1674 78.169 78.1724 78.1741 78.1774 78.1791 78.1823 78.184 78.1872 78.1888 78.1919 78.1936 78.1967 78.1984 78.2014 78.2032 78.2061 78.2079 78.2108 78.2127 78.2156 78.2176 78.2204 78.2225 78.2254 78.2276 78.2305 78.2328 78.2358 78.2382 78.2412 78.2437 78.2467 78.2493 78.2523 78.255 78.258 78.2606 78.2635 78.266 78.2687 78.271 78.2733 78.2752 78.277 78.2782 78.2792 78.2794 78.2793 78.2782 78.2764 78.2735 78.2696 78.2642 78.2574 78.2487 78.2382 78.2252 78.2097 78.1912 78.1694 78.1438 78.114 78.0793 78.0392 77.993 77.9399 77.8791 77.8097 77.7305 77.6405 77.5382 77.4223 77.291 77.1426 76.9751 76.7863 76.5737 76.335 76.0672 75.7676 75.4334 75.0619 74.6508 74.1983 73.7034 73.1667 72.5902 71.978 71.3364 70.6737 70 
20 23.3221 26.606 29.816 32.9216 35.8986 38.7299 41.4046 43.918 46.2697 48.4634 50.5049 52.402 54.1632 55.7977 57.3144 58.7221 60.0294 61.2439 62.3732 63.4237 64.4019 65.3132 66.1628 66.9553 67.6951 68.3858 69.0312 69.6342 70.198 70.725 71.2178 71.6785 72.1094 72.5121 72.8887 73.2404 73.5692 73.8761 74.1627 74.4299 74.6794 74.9116 75.1282 75.3295 75.517 75.691 75.8529 76.0028 76.1422 76.2709 76.3903 76.5004 76.6024 76.6961 76.783 76.8624 76.9359 77.0028 77.0649 77.121 77.173 77.2198 77.2632 77.3019 77.3379 77.3697 77.3994 77.4252 77.4495 77.4703 77.49 77.5065 77.5224 77.5352 77.5479 77.5577 77.5676 77.5749 77.5826 77.5876 77.5935 77.5968 77.6011 77.6029 77.606 77.6065 77.6086 77.6082 77.6095 77.6082 77.6089 77.607 77.6071 77.6047 77.6045 77.6017 77.6012 77.5981 77.5975 77.5941 77.5934 77.5899 77.5891 77.5856 77.5848 77.5813 77.5806 77.5771 77.5765 77.5731 77.5726 77.5693 77.569 77.5659 77.5658 77.5628 77.5629 77.5602 77.5606 77.5581 77.5587 77.5565 77.5574 77.5554 77.5565 77.5549 77.5563 77.5549 77.5566 77.5555 77.5575 77.5566 77.5589 77.5583 77.5608 77.5605 77.5633 77.5632 77.5662 77.5665 77.5697 77.5701 77.5735 77.5742 77.5777 77.5786 77.5823 77.5833 77.5872 77.5884 77.5923 77.5936 77.5976 77.5991 77.6031 77.6047 77.6088 77.6104 77.6145 77.6161 77.6202 77.6219 77.626 77.6277 77.6317 77.6335 77.6374 77.6392 77.643 77.6448 77.6486 77.6504 77.654 77.6559 77.6594 77.6613 77.6648 77.6667 77.6701 77.672 77.6753 77.6773 77.6806 77.6827 77.6859 77.688 77.6913 77.6935 77.6967 77.699 77.7023 77.7047 77.708 77.7106 77.714 77.7167 77.72 77.7228 77.7263 77.7292 77.7326 77.7355 77.7388 77.7417 77.7449 77.7477 77.7506 77.753 77.7555 77.7575 77.7593 77.7604 77.7613 77.7613 77.7607 77.7591 77.7567 77.7529 77.748 77.7413 77.7329 77.7224 77.7097 77.6942 77.6758 77.6539 77.6283 77.5983 77.5634 77.5231 77.4766 77.4232 77.3622 77.2924 77.2131 77.1229 77.0208 76.9052 76.7748 76.6277 76.4624 76.2768 76.0689 75.8364 75.5773 75.2891 74.9699 74.6175 74.2305 73.8079 73.3496 72.8564 72.3306 71.776 71.1979 70.6033 70 
20 23.1057 26.1807 29.196 32.1264 34.951 37.654 40.2248 42.6573 44.9492 47.1017 49.118 51.0033 52.7639 54.4067 55.9388 57.3675 58.6998 59.9425 61.1019 62.1841 63.1947 64.1388 65.021 65.8459 66.6174 67.3392 68.0145 68.6467 69.2384 69.7924 70.3109 70.7963 71.2505 71.6757 72.0733 72.4453 72.793 73.118 73.4214 73.7048 73.9691 74.2157 74.4453 74.6593 74.8582 75.0434 75.2152 75.3749 75.5227 75.66 75.7867 75.9043 76.0124 76.1127 76.2046 76.2898 76.3674 76.4394 76.5047 76.5653 76.6199 76.6706 76.7159 76.758 76.7954 76.8303 76.8607 76.8894 76.914 76.9374 76.957 76.9759 76.9913 77.0064 77.0183 77.0302 77.0391 77.0484 77.0547 77.0618 77.066 77.0713 77.0738 77.0777 77.0787 77.0813 77.0812 77.0829 77.0817 77.0826 77.0807 77.081 77.0785 77.0784 77.0754 77.0749 77.0715 77.0708 77.0671 77.0663 77.0624 77.0615 77.0576 77.0566 77.0527 77.0518 77.0478 77.047 77.0432 77.0425 77.0388 77.0383 77.0347 77.0344 77.031 77.031 77.0279 77.0281 77.0252 77.0257 77.0231 77.0239 77.0216 77.0227 77.0206 77.0221 77.0203 77.0221 77.0207 77.0228 77.0217 77.024 77.0233 77.0259 77.0255 77.0284 77.0282 77.0315 77.0316 77.0351 77.0354 77.0391 77.0398 77.0437 77.0445 77.0486 77.0497 77.0539 77.0552 77.0596 77.061 77.0654 77.067 77.0715 77.0732 77.0778 77.0796 77.0842 77.086 77.0906 77.0925 77.097 77.099 77.1035 77.1055 77.1099 77.1119 77.1163 77.1183 77.1225 77.1246 77.1287 77.1308 77.1348 77.1369 77.1408 77.1429 77.1467 77.1489 77.1526 77.1548 77.1585 77.1607 77.1643 77.1666 77.1702 77.1726 77.1762 77.1787 77.1823 77.185 77.1886 77.1914 77.195 77.1979 77.2017 77.2047 77.2085 77.2116 77.2154 77.2187 77.2224 77.2257 77.2294 77.2326 77.2361 77.2391 77.2423 77.2449 77.2475 77.2495 77.2513 77.2523 77.253 77.2527 77.2517 77.2495 77.2463 77.2416 77.2355 77.2274 77.2174 77.2049 77.1898 77.1717 77.1502 77.1247 77.0951 77.0604 77.0204 76.9742 76.9212 76.8605 76.7914 76.7127 76.6235 76.5226 76.4087 76.2805 76.1364 75.9749 75.7943 75.5929 75.3688 75.1202 74.8453 74.5426 74.2107 73.8485 73.4557 73.0325 72.5802 72.101 71.5983 71.0767 70.5418 70 