# vtk DataFile Version 3.0
2D simulation data
ASCII
DATASET STRUCTURED_POINTS
DIMENSIONS 258 258 1
ORIGIN 0 0 0
SPACING 1 1 1
POINT_DATA 66564
SCALARS simulation_data float 1
LOOKUP_TABLE default
85 85 85 85 85 85 85 85 85 85 85 85 85 85 85 85 85 85 85 85 85 85 85 85 85 85 85 85 85 85 85 85 85 85 85 85 85 85 85 85 85 85 85 85 85 85 85 85 85 85 85 85 85 85 85 85 85 85 85 85 85 85 85 85 85 85 85 85 85 85 85 85 85 85 85 85 85 85 85 85 85 85 85 85 85 85 85 85 85 85 85 85 85 85 85 85 85 85 85 85 85 85 85 85 85 85 85 85 85 85 85 85 85 85 85 85 85 85 85 85 85 85 85 85 85 85 85 85 85 85 85 85 85 85 85 85 85 85 85 85 85 85 85 85 85 85 85 85 85 85 85 85 85 85 85 85 85 85 85 85 85 85 85 85 85 85 85 85 85 85 85 85 85 85 85 85 85 85 85 85 85 85 85 85 85 85 85 85 85 85 85 85 85 85 85 85 85 85 85 85 85 85 85 85 85 85 85 85 85 85 85 85 85 85 85 85 85 85 85 85 85 85 85 85 85 85 85 85 85 85 85 85 85 85 85 85 85 85 85 85 85 85 85 85 85 85 85 85 85 85 85 85 85 85 85 85 85 85 
20 52.5159 65.3791 71.437 74.7606 76.8148 78.2008 79.1977 79.9495 80.5371 81.0094 81.3976 81.7225 81.9984 82.2356 82.4418 82.6224 82.782 82.9238 83.0504 83.1641 83.2665 83.359 83.4429 83.519 83.5883 83.6515 83.7091 83.7618 83.8099 83.8538 83.894 83.9308 83.9644 83.9951 84.0231 84.0487 84.0721 84.0933 84.1127 84.1304 84.1464 84.161 84.1742 84.1862 84.197 84.2068 84.2156 84.2235 84.2307 84.2371 84.2429 84.248 84.2526 84.2567 84.2604 84.2637 84.2666 84.2691 84.2714 84.2734 84.2752 84.2767 84.2781 84.2793 84.2803 84.2813 84.2821 84.2828 84.2834 84.2839 84.2843 84.2847 84.2851 84.2853 84.2856 84.2858 84.286 84.2861 84.2862 84.2863 84.2864 84.2865 84.2865 84.2866 84.2866 84.2866 84.2867 84.2867 84.2867 84.2867 84.2867 84.2867 84.2867 84.2867 84.2866 84.2866 84.2866 84.2866 84.2866 84.2866 84.2865 84.2865 84.2865 84.2865 84.2865 84.2864 84.2864 84.2864 84.2864 84.2863 84.2863 84.2863 84.2863 84.2863 84.2863 84.2862 84.2862 84.2862 84.2862 84.2862 84.2862 84.2862 84.2862 84.2862 84.2862 84.2862 84.2862 84.2862 84.2862 84.2862 84.2862 84.2862 84.2862 84.2862 84.2862 84.2862 84.2862 84.2862 84.2863 84.2863 84.2863 84.2863 84.2863 84.2863 84.2864 84.2864 84.2864 84.2864 84.2865 84.2865 84.2865 84.2865 84.2866 84.2866 84.2866 84.2866 84.2866 84.2867 84.2867 84.2867 84.2867 84.2867 84.2868 84.2868 84.2868 84.2868 84.2869 84.2869 84.2869 84.2869 84.2869 84.2869 84.287 84.287 84.287 84.287 84.287 84.2871 84.2871 84.2871 84.2871 84.2871 84.2872 84.2872 84.2872 84.2873 84.2873 84.2874 84.2874 84.2874 84.2875 84.2876 84.2876 84.2877 84.2878 84.2879 84.288 84.2881 84.2882 84.2883 84.2885 84.2886 84.2888 84.289 84.2892 84.2894 84.2896 84.2898 84.29 84.2902 84.2904 84.2907 84.2909 84.2911 84.2912 84.2914 84.2915 84.2915 84.2915 84.2914 84.2912 84.2908 84.2903 84.2896 84.2887 84.2875 84.2859 84.284 84.2816 84.2786 84.275 84.2707 84.2654 84.2591 84.2515 84.2425 84.2317 84.2189 84.2035 84.1852 84.1633 84.137 84.1053 84.0668 84.0199 83.962 83.89 83.7988 83.6814 83.5264 83.3151 83.0142 82.5593 81.8116 80.4331 77.4841 70 
20 39.6843 52.5634 60.6083 65.7903 69.2973 71.7904 73.6402 75.0628 76.1891 77.1025 77.858 78.4933 79.0348 79.5017 79.9083 80.2654 80.5811 80.862 81.1132 81.3388 81.5421 81.7261 81.8928 82.0444 82.1824 82.3081 82.4229 82.5278 82.6236 82.7112 82.7913 82.8646 82.9316 82.9928 83.0487 83.0998 83.1464 83.1889 83.2276 83.2628 83.2948 83.3238 83.3502 83.3741 83.3957 83.4152 83.4328 83.4487 83.4629 83.4758 83.4873 83.4976 83.5068 83.515 83.5223 83.5288 83.5346 83.5397 83.5443 83.5483 83.5518 83.5549 83.5576 83.56 83.5621 83.564 83.5656 83.567 83.5681 83.5692 83.5701 83.5709 83.5715 83.5721 83.5726 83.573 83.5733 83.5736 83.5739 83.5741 83.5743 83.5744 83.5745 83.5746 83.5747 83.5747 83.5747 83.5748 83.5748 83.5748 83.5748 83.5748 83.5747 83.5747 83.5747 83.5747 83.5746 83.5746 83.5745 83.5745 83.5745 83.5744 83.5744 83.5744 83.5743 83.5743 83.5742 83.5742 83.5741 83.5741 83.5741 83.574 83.574 83.574 83.5739 83.5739 83.5739 83.5739 83.5738 83.5738 83.5738 83.5738 83.5738 83.5738 83.5737 83.5737 83.5737 83.5737 83.5737 83.5738 83.5738 83.5738 83.5738 83.5738 83.5738 83.5739 83.5739 83.5739 83.5739 83.574 83.574 83.574 83.5741 83.5741 83.5741 83.5742 83.5742 83.5743 83.5743 83.5744 83.5744 83.5745 83.5745 83.5746 83.5746 83.5746 83.5747 83.5747 83.5748 83.5748 83.5749 83.5749 83.5749 83.575 83.575 83.5751 83.5751 83.5752 83.5752 83.5752 83.5753 83.5753 83.5753 83.5754 83.5754 83.5755 83.5755 83.5755 83.5756 83.5756 83.5757 83.5757 83.5758 83.5758 83.5759 83.576 83.576 83.5761 83.5762 83.5763 83.5764 83.5766 83.5767 83.5768 83.577 83.5772 83.5774 83.5776 83.5778 83.5781 83.5784 83.5787 83.579 83.5794 83.5797 83.5801 83.5805 83.581 83.5814 83.5819 83.5823 83.5828 83.5832 83.5836 83.584 83.5843 83.5845 83.5846 83.5845 83.5843 83.5839 83.5832 83.5822 83.5809 83.579 83.5766 83.5736 83.5697 83.565 83.5592 83.5521 83.5434 83.5331 83.5206 83.5057 83.4879 83.4666 83.4413 83.411 83.375 83.3319 83.2802 83.2181 83.1429 83.0513 82.9389 82.7996 82.6245 82.4009 82.1095 81.7201 81.1827 80.4116 79.2543 77.4366 74.5035 70 
20 33.658 44.5815 52.6421 58.4945 62.7933 66.0223 68.5093 70.4713 72.0529 73.3523 74.4375 75.3566 76.1445 76.8268 77.4232 77.9483 78.4137 78.8286 79.2002 79.5344 79.8361 80.1091 80.3569 80.5823 80.7876 80.9748 81.1458 81.3021 81.4449 81.5756 81.6951 81.8044 81.9044 81.9958 82.0794 82.1556 82.2252 82.2887 82.3465 82.3991 82.447 82.4904 82.5298 82.5655 82.5978 82.627 82.6533 82.6771 82.6984 82.7176 82.7348 82.7502 82.7639 82.7762 82.7872 82.7969 82.8056 82.8132 82.82 82.826 82.8313 82.836 82.8401 82.8436 82.8468 82.8495 82.8519 82.854 82.8558 82.8573 82.8587 82.8598 82.8608 82.8617 82.8624 82.863 82.8636 82.864 82.8644 82.8647 82.8649 82.8651 82.8653 82.8654 82.8655 82.8656 82.8656 82.8657 82.8657 82.8657 82.8657 82.8656 82.8656 82.8656 82.8656 82.8655 82.8655 82.8654 82.8654 82.8653 82.8652 82.8651 82.8651 82.865 82.865 82.8649 82.8648 82.8648 82.8647 82.8646 82.8646 82.8645 82.8645 82.8644 82.8644 82.8643 82.8643 82.8642 82.8642 82.8642 82.8642 82.8641 82.8641 82.8641 82.8641 82.8641 82.8641 82.8641 82.8641 82.8641 82.8641 82.8641 82.8642 82.8642 82.8642 82.8642 82.8643 82.8643 82.8644 82.8644 82.8645 82.8645 82.8646 82.8646 82.8647 82.8648 82.8649 82.8649 82.865 82.865 82.8651 82.8652 82.8653 82.8653 82.8654 82.8654 82.8655 82.8656 82.8657 82.8657 82.8658 82.8659 82.8659 82.866 82.8661 82.8661 82.8662 82.8662 82.8663 82.8664 82.8664 82.8665 82.8665 82.8666 82.8667 82.8667 82.8668 82.8668 82.8669 82.867 82.867 82.8671 82.8672 82.8673 82.8674 82.8675 82.8676 82.8677 82.8679 82.868 82.8682 82.8684 82.8686 82.8688 82.869 82.8693 82.8696 82.8699 82.8703 82.8707 82.8711 82.8716 82.8721 82.8726 82.8732 82.8738 82.8744 82.875 82.8757 82.8764 82.8771 82.8777 82.8784 82.879 82.8796 82.88 82.8804 82.8806 82.8805 82.8803 82.8797 82.8787 82.8773 82.8753 82.8726 82.8691 82.8646 82.859 82.852 82.8435 82.8331 82.8204 82.8052 82.7869 82.765 82.7388 82.7077 82.6706 82.6264 82.5737 82.5109 82.4357 82.3455 82.2368 82.105 81.9442 81.7461 81.4997 81.1891 80.7917 80.2738 79.5854 78.6507 77.3579 75.5558 73.0934 70 
20 30.3658 39.4622 46.8836 52.7515 57.358 60.9953 63.9021 66.2587 68.1974 69.8148 71.1814 72.3493 73.3577 74.2361 75.0072 75.6888 76.2948 76.8364 77.3226 77.7607 78.1567 78.5157 78.8418 79.1387 79.4094 79.6565 79.8823 80.0887 80.2776 80.4504 80.6086 80.7533 80.8857 81.0068 81.1175 81.2185 81.3108 81.395 81.4716 81.5414 81.6049 81.6625 81.7148 81.7622 81.8051 81.8438 81.8788 81.9103 81.9386 81.9641 81.9869 82.0074 82.0256 82.042 82.0565 82.0695 82.081 82.0912 82.1002 82.1081 82.1152 82.1214 82.1268 82.1316 82.1357 82.1394 82.1425 82.1453 82.1477 82.1498 82.1515 82.1531 82.1544 82.1555 82.1565 82.1573 82.158 82.1586 82.159 82.1595 82.1598 82.1601 82.1603 82.1605 82.1606 82.1607 82.1607 82.1608 82.1608 82.1608 82.1608 82.1608 82.1607 82.1607 82.1606 82.1606 82.1604 82.1604 82.1603 82.1602 82.1601 82.1601 82.1599 82.1599 82.1598 82.1597 82.1596 82.1595 82.1594 82.1594 82.1592 82.1592 82.1591 82.1591 82.159 82.1589 82.1588 82.1588 82.1587 82.1587 82.1587 82.1587 82.1586 82.1586 82.1586 82.1586 82.1586 82.1586 82.1586 82.1586 82.1586 82.1587 82.1587 82.1587 82.1587 82.1588 82.1588 82.1589 82.159 82.1591 82.1591 82.1592 82.1593 82.1594 82.1594 82.1595 82.1596 82.1597 82.1598 82.1599 82.16 82.1601 82.1602 82.1603 82.1604 82.1605 82.1605 82.1607 82.1607 82.1609 82.1609 82.161 82.1611 82.1612 82.1613 82.1614 82.1615 82.1616 82.1616 82.1617 82.1618 82.1619 82.1619 82.162 82.1621 82.1622 82.1623 82.1624 82.1624 82.1625 82.1626 82.1627 82.1628 82.163 82.1631 82.1632 82.1634 82.1636 82.1637 82.1639 82.1642 82.1644 82.1647 82.165 82.1653 82.1657 82.1661 82.1665 82.167 82.1675 82.1681 82.1687 82.1694 82.1701 82.1708 82.1716 82.1725 82.1733 82.1742 82.1752 82.1761 82.177 82.1779 82.1788 82.1795 82.1802 82.1807 82.181 82.181 82.1807 82.18 82.1788 82.177 82.1744 82.171 82.1665 82.1607 82.1535 82.1445 82.1335 82.12 82.1036 82.0839 82.0602 82.0319 81.9981 81.9579 81.91 81.8531 81.7854 81.7049 81.6088 81.4939 81.3561 81.1899 80.9886 80.7429 80.4407 80.0657 79.5954 78.9992 78.2353 77.2485 75.9712 74.3359 72.3143 70 
20 28.3427 36.0174 42.678 48.2689 52.8906 56.6974 59.8435 62.4621 64.6613 66.5259 68.1216 69.4993 70.6984 71.75 72.6782 73.5022 74.2377 74.8971 75.4905 76.0264 76.5119 76.9526 77.3537 77.7192 78.0528 78.3577 78.6365 78.8916 79.1251 79.339 79.5348 79.714 79.8781 80.0282 80.1654 80.2908 80.4053 80.5097 80.6049 80.6915 80.7704 80.842 80.9069 80.9658 81.0191 81.0672 81.1107 81.1499 81.1851 81.2168 81.2452 81.2706 81.2934 81.3137 81.3318 81.3479 81.3622 81.3749 81.3861 81.396 81.4047 81.4124 81.4192 81.4251 81.4303 81.4348 81.4388 81.4422 81.4452 81.4478 81.45 81.4519 81.4536 81.4549 81.4562 81.4572 81.458 81.4587 81.4594 81.4598 81.4603 81.4606 81.4609 81.461 81.4612 81.4613 81.4614 81.4614 81.4615 81.4614 81.4615 81.4614 81.4614 81.4612 81.4612 81.4611 81.461 81.4609 81.4608 81.4607 81.4606 81.4604 81.4604 81.4602 81.4601 81.46 81.4599 81.4597 81.4597 81.4595 81.4595 81.4593 81.4593 81.4591 81.4591 81.459 81.459 81.4588 81.4588 81.4587 81.4587 81.4586 81.4586 81.4586 81.4586 81.4585 81.4586 81.4585 81.4586 81.4586 81.4586 81.4586 81.4587 81.4587 81.4588 81.4588 81.459 81.459 81.4591 81.4591 81.4593 81.4593 81.4595 81.4595 81.4597 81.4598 81.4599 81.46 81.4602 81.4602 81.4604 81.4605 81.4607 81.4607 81.4609 81.461 81.4612 81.4612 81.4614 81.4615 81.4617 81.4617 81.4619 81.462 81.4621 81.4622 81.4623 81.4624 81.4625 81.4626 81.4627 81.4628 81.4629 81.463 81.4632 81.4632 81.4634 81.4634 81.4636 81.4637 81.4638 81.4639 81.4641 81.4642 81.4644 81.4646 81.4648 81.465 81.4652 81.4654 81.4657 81.466 81.4664 81.4668 81.4672 81.4676 81.4682 81.4687 81.4693 81.47 81.4707 81.4715 81.4723 81.4732 81.4741 81.4751 81.4762 81.4773 81.4784 81.4796 81.4808 81.482 81.4831 81.4842 81.4852 81.4861 81.4867 81.4872 81.4873 81.487 81.4863 81.4849 81.4828 81.4798 81.4758 81.4704 81.4636 81.4549 81.4441 81.4308 81.4146 81.3949 81.3712 81.3428 81.3087 81.2681 81.2199 81.1625 81.0945 81.0138 80.9179 80.804 80.6684 80.5066 80.3128 80.0799 79.7985 79.4568 79.0395 78.5269 77.8938 77.1094 76.1378 74.9434 73.5027 71.8283 70 
20 26.9875 33.5859 39.5411 44.7542 49.2367 53.0584 56.3102 59.0827 61.4574 63.5031 65.2768 66.8246 68.1836 69.384 70.4498 71.4009 72.2533 73.0202 73.7126 74.3395 74.9086 75.4263 75.8982 76.3289 76.7225 77.0826 77.4123 77.7142 77.9909 78.2443 78.4766 78.6893 78.8841 79.0624 79.2254 79.3745 79.5107 79.6349 79.7482 79.8514 79.9452 80.0305 80.1079 80.178 80.2415 80.2989 80.3507 80.3974 80.4394 80.4772 80.511 80.5414 80.5685 80.5927 80.6143 80.6335 80.6506 80.6657 80.6791 80.691 80.7014 80.7106 80.7187 80.7257 80.7319 80.7373 80.742 80.7461 80.7497 80.7528 80.7554 80.7577 80.7596 80.7613 80.7627 80.764 80.765 80.7658 80.7665 80.7671 80.7676 80.768 80.7683 80.7686 80.7687 80.7689 80.7689 80.769 80.769 80.769 80.7689 80.7689 80.7688 80.7688 80.7686 80.7686 80.7684 80.7683 80.7681 80.768 80.7678 80.7678 80.7676 80.7675 80.7673 80.7672 80.767 80.7669 80.7667 80.7666 80.7664 80.7664 80.7662 80.7661 80.766 80.7659 80.7658 80.7657 80.7656 80.7656 80.7655 80.7655 80.7654 80.7654 80.7653 80.7654 80.7653 80.7654 80.7653 80.7654 80.7654 80.7655 80.7655 80.7656 80.7656 80.7657 80.7658 80.7659 80.766 80.7661 80.7662 80.7664 80.7664 80.7666 80.7667 80.7669 80.767 80.7672 80.7673 80.7675 80.7676 80.7678 80.7679 80.7681 80.7682 80.7684 80.7685 80.7688 80.7689 80.7691 80.7692 80.7694 80.7695 80.7697 80.7697 80.7699 80.77 80.7702 80.7703 80.7705 80.7706 80.7707 80.7708 80.771 80.7711 80.7712 80.7713 80.7715 80.7716 80.7718 80.7719 80.7721 80.7722 80.7724 80.7726 80.7728 80.773 80.7733 80.7736 80.7739 80.7742 80.7746 80.775 80.7755 80.776 80.7766 80.7772 80.7778 80.7786 80.7794 80.7802 80.7812 80.7822 80.7832 80.7844 80.7856 80.7869 80.7882 80.7896 80.7911 80.7925 80.7939 80.7954 80.7967 80.798 80.7991 80.8 80.8006 80.8009 80.8007 80.8 80.7986 80.7963 80.793 80.7884 80.7824 80.7746 80.7648 80.7525 80.7374 80.7188 80.6963 80.6691 80.6366 80.5976 80.5512 80.4961 80.4308 80.3534 80.2618 80.1535 80.0252 79.8732 79.6929 79.4784 79.2228 78.9174 78.5512 78.1111 77.5808 76.9416 76.1721 75.2513 74.1628 72.9037 71.4966 70 
20 26.021 31.7969 37.1453 41.9686 46.2417 49.9873 53.2536 56.0984 58.5792 60.7492 62.6546 64.335 65.8237 67.1485 68.3323 69.3943 70.3504 71.2139 71.9962 72.7065 73.3529 73.9422 74.4804 74.9724 75.4228 75.8353 76.2134 76.56 76.8779 77.1694 77.4367 77.6816 77.9061 78.1117 78.2998 78.4718 78.629 78.7725 78.9034 79.0226 79.1311 79.2297 79.3192 79.4004 79.4738 79.5402 79.6002 79.6543 79.7029 79.7466 79.7859 79.821 79.8525 79.8805 79.9056 79.9278 79.9476 79.9651 79.9807 79.9944 80.0065 80.0171 80.0265 80.0347 80.0419 80.0481 80.0536 80.0583 80.0625 80.066 80.0691 80.0717 80.074 80.0759 80.0776 80.0789 80.0802 80.0811 80.082 80.0826 80.0832 80.0836 80.084 80.0842 80.0845 80.0846 80.0847 80.0847 80.0848 80.0847 80.0847 80.0846 80.0845 80.0844 80.0843 80.0841 80.084 80.0838 80.0837 80.0834 80.0833 80.0831 80.083 80.0827 80.0826 80.0823 80.0823 80.082 80.0819 80.0817 80.0816 80.0813 80.0813 80.0811 80.081 80.0808 80.0808 80.0806 80.0806 80.0804 80.0804 80.0803 80.0803 80.0802 80.0802 80.0801 80.0802 80.0801 80.0802 80.0802 80.0803 80.0803 80.0804 80.0804 80.0806 80.0806 80.0808 80.0808 80.081 80.0811 80.0813 80.0814 80.0816 80.0817 80.0819 80.082 80.0823 80.0824 80.0826 80.0828 80.083 80.0831 80.0834 80.0835 80.0838 80.0839 80.0842 80.0843 80.0846 80.0847 80.0849 80.0851 80.0853 80.0854 80.0856 80.0858 80.086 80.0861 80.0863 80.0864 80.0866 80.0867 80.0869 80.087 80.0872 80.0874 80.0875 80.0877 80.0879 80.088 80.0882 80.0884 80.0886 80.0888 80.0891 80.0893 80.0896 80.0899 80.0902 80.0906 80.091 80.0914 80.0919 80.0924 80.093 80.0937 80.0944 80.0952 80.096 80.097 80.098 80.0991 80.1003 80.1015 80.1029 80.1043 80.1059 80.1074 80.1091 80.1108 80.1125 80.1143 80.116 80.1177 80.1192 80.1206 80.1218 80.1227 80.1231 80.1231 80.1225 80.1211 80.1187 80.1153 80.1104 80.1039 80.0955 80.0847 80.0712 80.0546 80.0342 80.0093 79.9794 79.9435 79.9005 79.8495 79.7888 79.7171 79.6323 79.5322 79.4142 79.2751 79.1111 78.9176 78.6893 78.4195 78.1004 77.7228 77.2755 76.7464 76.1217 75.388 74.5339 73.5538 72.4534 71.2548 70 
20 25.2993 30.4343 35.2731 39.7315 43.772 47.3928 50.6158 53.4747 56.0085 58.2559 60.2531 62.0328 63.6234 65.0494 66.3319 67.4887 68.5352 69.4842 70.3469 71.1327 71.8498 72.505 73.1046 73.6539 74.1573 74.6192 75.043 75.432 75.7891 76.1169 76.4176 76.6935 76.9465 77.1782 77.3905 77.5847 77.7622 77.9243 78.0722 78.207 78.3297 78.4413 78.5426 78.6344 78.7176 78.7928 78.8607 78.9219 78.9771 79.0266 79.0711 79.1109 79.1466 79.1784 79.2068 79.232 79.2544 79.2744 79.292 79.3075 79.3212 79.3333 79.3439 79.3533 79.3614 79.3685 79.3747 79.3801 79.3847 79.3888 79.3922 79.3953 79.3978 79.4 79.4018 79.4035 79.4048 79.4059 79.4068 79.4076 79.4082 79.4087 79.409 79.4094 79.4096 79.4098 79.4098 79.4099 79.4098 79.4099 79.4097 79.4097 79.4095 79.4094 79.4092 79.4091 79.4088 79.4087 79.4084 79.4083 79.408 79.4079 79.4076 79.4074 79.4071 79.407 79.4067 79.4066 79.4063 79.4062 79.4059 79.4058 79.4055 79.4054 79.4052 79.4051 79.4049 79.4049 79.4046 79.4046 79.4044 79.4045 79.4043 79.4044 79.4042 79.4043 79.4042 79.4043 79.4042 79.4044 79.4043 79.4045 79.4044 79.4046 79.4046 79.4049 79.4049 79.4051 79.4052 79.4054 79.4055 79.4058 79.4059 79.4062 79.4063 79.4066 79.4067 79.407 79.4072 79.4075 79.4076 79.408 79.4081 79.4084 79.4086 79.4089 79.409 79.4094 79.4095 79.4098 79.41 79.4103 79.4104 79.4107 79.4108 79.4111 79.4112 79.4115 79.4116 79.4119 79.412 79.4123 79.4124 79.4126 79.4128 79.413 79.4131 79.4134 79.4135 79.4138 79.414 79.4142 79.4144 79.4147 79.4149 79.4153 79.4156 79.4159 79.4163 79.4167 79.4172 79.4177 79.4182 79.4189 79.4195 79.4203 79.4211 79.422 79.423 79.4241 79.4252 79.4265 79.4279 79.4294 79.4309 79.4326 79.4343 79.4362 79.4381 79.4401 79.4422 79.4442 79.4462 79.4482 79.4501 79.4518 79.4533 79.4545 79.4553 79.4555 79.4551 79.4538 79.4516 79.448 79.4431 79.4363 79.4274 79.4161 79.4018 79.384 79.3622 79.3357 79.3036 79.2652 79.2192 79.1646 79.0998 79.0232 78.933 78.8268 78.702 78.5556 78.3838 78.1824 77.9464 77.6699 77.3462 76.9675 76.5253 76.0103 75.4134 74.7264 73.9441 73.0665 72.102 71.0698 70 
20 24.7412 29.3671 33.7799 37.9104 41.7193 45.1935 48.3385 51.1725 53.72 56.0083 58.0646 59.9148 61.5824 63.0885 64.4516 65.6881 66.8119 67.8354 68.7692 69.6225 70.4033 71.1186 71.7746 72.3766 72.9294 73.4373 73.904 74.3329 74.727 75.0891 75.4217 75.7271 76.0072 76.2641 76.4994 76.7149 76.912 77.092 77.2563 77.4062 77.5426 77.6667 77.7794 77.8816 77.9742 78.0579 78.1335 78.2018 78.2632 78.3184 78.368 78.4124 78.4521 78.4876 78.5192 78.5474 78.5724 78.5946 78.6143 78.6316 78.6469 78.6604 78.6722 78.6826 78.6917 78.6996 78.7066 78.7125 78.7178 78.7222 78.7261 78.7294 78.7323 78.7347 78.7369 78.7386 78.7401 78.7413 78.7423 78.7431 78.7439 78.7443 78.7448 78.7451 78.7454 78.7455 78.7456 78.7456 78.7456 78.7455 78.7455 78.7453 78.7452 78.7449 78.7448 78.7445 78.7444 78.744 78.7439 78.7435 78.7434 78.743 78.7429 78.7425 78.7423 78.7419 78.7418 78.7414 78.7413 78.7409 78.7408 78.7405 78.7404 78.7401 78.74 78.7397 78.7396 78.7394 78.7393 78.7391 78.7391 78.7389 78.7389 78.7388 78.7388 78.7387 78.7388 78.7387 78.7388 78.7388 78.7389 78.7389 78.7391 78.7391 78.7394 78.7394 78.7396 78.7397 78.74 78.7401 78.7404 78.7405 78.7408 78.741 78.7413 78.7415 78.7418 78.742 78.7424 78.7425 78.7429 78.7431 78.7435 78.7437 78.744 78.7442 78.7446 78.7448 78.7452 78.7453 78.7457 78.7459 78.7462 78.7464 78.7467 78.7469 78.7472 78.7474 78.7477 78.7479 78.7482 78.7483 78.7486 78.7487 78.749 78.7492 78.7495 78.7496 78.7499 78.7501 78.7504 78.7506 78.7509 78.7512 78.7515 78.7518 78.7522 78.7526 78.7531 78.7535 78.7541 78.7546 78.7553 78.7559 78.7567 78.7576 78.7585 78.7595 78.7607 78.7619 78.7632 78.7646 78.7662 78.7679 78.7696 78.7715 78.7736 78.7757 78.7779 78.7802 78.7826 78.7849 78.7873 78.7897 78.7919 78.794 78.7959 78.7974 78.7986 78.7991 78.799 78.798 78.796 78.7926 78.7877 78.7809 78.7719 78.7602 78.7454 78.727 78.7044 78.6767 78.6433 78.6031 78.5551 78.4981 78.4306 78.3509 78.2572 78.1472 78.0184 77.8679 77.6923 77.4876 77.2493 76.9725 76.6515 76.28 75.8515 75.3595 74.798 74.1625 73.4514 72.6675 71.8194 70.9228 70 
20 24.2979 28.5116 32.5673 36.4086 39.9988 43.3198 46.3686 49.1525 51.6862 53.9877 56.077 57.9738 59.6971 61.2645 62.692 63.9938 65.1828 66.2702 67.2659 68.1787 69.0165 69.7859 70.4931 71.1434 71.7417 72.2923 72.7989 73.2651 73.694 74.0884 74.4511 74.7843 75.0902 75.371 75.6284 75.8642 76.0799 76.2772 76.4573 76.6215 76.7712 76.9073 77.031 77.1432 77.2449 77.3369 77.42 77.495 77.5625 77.6232 77.6777 77.7265 77.7702 77.8093 77.8441 77.8751 77.9026 77.9271 77.9487 77.9678 77.9846 77.9995 78.0125 78.024 78.0339 78.0427 78.0503 78.0569 78.0626 78.0676 78.0718 78.0755 78.0786 78.0813 78.0836 78.0855 78.0871 78.0885 78.0895 78.0905 78.0912 78.0918 78.0922 78.0926 78.0928 78.093 78.093 78.0931 78.093 78.093 78.0927 78.0927 78.0924 78.0923 78.0919 78.0918 78.0914 78.0912 78.0908 78.0906 78.0901 78.09 78.0895 78.0893 78.0889 78.0887 78.0883 78.0881 78.0877 78.0875 78.0871 78.087 78.0866 78.0865 78.0861 78.086 78.0857 78.0856 78.0853 78.0853 78.085 78.0851 78.0848 78.0849 78.0847 78.0848 78.0847 78.0848 78.0847 78.0849 78.0848 78.0851 78.085 78.0853 78.0853 78.0856 78.0857 78.086 78.0861 78.0865 78.0866 78.087 78.0871 78.0875 78.0877 78.0881 78.0883 78.0887 78.0889 78.0894 78.0896 78.0901 78.0903 78.0907 78.0909 78.0914 78.0916 78.0921 78.0923 78.0927 78.0929 78.0934 78.0936 78.094 78.0942 78.0946 78.0948 78.0951 78.0953 78.0957 78.0959 78.0962 78.0964 78.0967 78.0969 78.0972 78.0974 78.0978 78.098 78.0983 78.0985 78.0989 78.0991 78.0995 78.0998 78.1002 78.1006 78.1011 78.1016 78.1021 78.1027 78.1034 78.1041 78.1049 78.1057 78.1067 78.1077 78.1089 78.1101 78.1115 78.113 78.1146 78.1163 78.1182 78.1202 78.1224 78.1246 78.1271 78.1296 78.1322 78.1349 78.1376 78.1404 78.1431 78.1458 78.1483 78.1506 78.1526 78.1542 78.1552 78.1554 78.1548 78.1531 78.1501 78.1455 78.1389 78.13 78.1183 78.1035 78.0849 78.0619 78.0337 77.9996 77.9586 77.9096 77.8513 77.7824 77.7012 77.6059 77.4943 77.3642 77.2126 77.0366 76.8326 76.5968 76.3249 76.0123 75.6541 75.2454 74.7818 74.2597 73.6768 73.0337 72.3342 71.5863 70.8027 70 
20 23.9382 27.813 31.5673 35.1552 38.5442 41.7149 44.6592 47.3782 49.8792 52.1739 54.2759 56.2001 57.9613 59.5739 61.0512 62.4056 63.6483 64.7896 65.8386 66.8034 67.6914 68.5091 69.2624 69.9567 70.5965 71.1862 71.7297 72.2305 72.6918 73.1166 73.5074 73.8669 74.1973 74.5006 74.7789 75.034 75.2676 75.4812 75.6764 75.8545 76.0168 76.1645 76.2987 76.4206 76.531 76.631 76.7213 76.8028 76.8762 76.9422 77.0015 77.0546 77.1022 77.1446 77.1825 77.2162 77.2462 77.2728 77.2964 77.3172 77.3355 77.3517 77.3659 77.3783 77.3892 77.3987 77.407 77.4142 77.4204 77.4258 77.4305 77.4344 77.4379 77.4407 77.4432 77.4452 77.447 77.4484 77.4497 77.4506 77.4514 77.452 77.4525 77.4528 77.4531 77.4531 77.4533 77.4532 77.4532 77.453 77.4529 77.4526 77.4525 77.4521 77.4519 77.4515 77.4513 77.4508 77.4506 77.45 77.4498 77.4493 77.4491 77.4485 77.4483 77.4478 77.4476 77.4471 77.4469 77.4464 77.4462 77.4457 77.4456 77.4451 77.445 77.4446 77.4445 77.4441 77.4441 77.4438 77.4438 77.4435 77.4436 77.4433 77.4434 77.4432 77.4434 77.4432 77.4434 77.4433 77.4436 77.4435 77.4438 77.4438 77.4441 77.4441 77.4445 77.4446 77.445 77.4451 77.4456 77.4457 77.4462 77.4464 77.4469 77.4471 77.4476 77.4478 77.4484 77.4486 77.4492 77.4494 77.45 77.4502 77.4507 77.451 77.4515 77.4518 77.4523 77.4526 77.4531 77.4533 77.4538 77.4541 77.4545 77.4548 77.4552 77.4555 77.4559 77.4561 77.4565 77.4567 77.4571 77.4574 77.4577 77.458 77.4583 77.4586 77.4589 77.4592 77.4596 77.4599 77.4603 77.4606 77.4611 77.4614 77.4619 77.4624 77.463 77.4636 77.4642 77.4649 77.4657 77.4666 77.4676 77.4686 77.4698 77.471 77.4724 77.4739 77.4756 77.4774 77.4793 77.4814 77.4837 77.4861 77.4887 77.4913 77.4942 77.4971 77.5002 77.5033 77.5065 77.5097 77.5128 77.5158 77.5186 77.5211 77.5231 77.5246 77.5255 77.5254 77.5242 77.5217 77.5175 77.5113 77.5029 77.4916 77.4771 77.4587 77.4359 77.4078 77.3737 77.3327 77.2836 77.2252 77.1562 77.075 76.9799 76.8688 76.7395 76.5897 76.4163 76.2166 75.987 75.7241 75.4242 75.0836 74.6988 74.2667 73.7855 73.2543 72.6748 72.051 71.3901 70.7022 70 
20 23.6412 27.2333 30.7315 34.098 37.3046 40.3322 43.1705 45.8166 48.2731 50.5465 52.6461 54.5825 56.367 58.0111 59.5257 60.9212 62.2076 63.3937 64.4878 65.4974 66.4293 67.2897 68.0842 68.8179 69.4954 70.1209 70.6982 71.231 71.7223 72.1752 72.5924 72.9765 73.3298 73.6544 73.9525 74.2259 74.4763 74.7055 74.915 75.1063 75.2807 75.4394 75.5838 75.7149 75.8337 75.9413 76.0385 76.1262 76.2053 76.2764 76.3403 76.3976 76.4488 76.4947 76.5355 76.5719 76.6042 76.6329 76.6583 76.6808 76.7005 76.718 76.7333 76.7468 76.7585 76.7688 76.7776 76.7854 76.7921 76.798 76.8029 76.8073 76.8108 76.814 76.8166 76.8189 76.8207 76.8223 76.8235 76.8246 76.8253 76.8261 76.8264 76.8269 76.827 76.8272 76.8271 76.8272 76.827 76.8269 76.8266 76.8265 76.826 76.8258 76.8253 76.8251 76.8245 76.8243 76.8237 76.8234 76.8228 76.8225 76.8219 76.8217 76.821 76.8208 76.8201 76.8199 76.8193 76.8191 76.8185 76.8183 76.8178 76.8176 76.8171 76.817 76.8165 76.8165 76.816 76.816 76.8156 76.8157 76.8154 76.8155 76.8152 76.8154 76.8151 76.8154 76.8152 76.8155 76.8154 76.8157 76.8156 76.816 76.816 76.8165 76.8165 76.817 76.8171 76.8176 76.8178 76.8183 76.8185 76.8191 76.8193 76.8199 76.8202 76.8208 76.8211 76.8217 76.822 76.8226 76.8229 76.8236 76.8239 76.8245 76.8248 76.8255 76.8257 76.8264 76.8267 76.8273 76.8275 76.8281 76.8284 76.8289 76.8292 76.8297 76.83 76.8305 76.8307 76.8312 76.8315 76.8319 76.8322 76.8326 76.8329 76.8333 76.8336 76.834 76.8343 76.8348 76.8351 76.8356 76.836 76.8365 76.837 76.8376 76.8382 76.8389 76.8396 76.8404 76.8412 76.8422 76.8433 76.8444 76.8457 76.8471 76.8486 76.8503 76.8521 76.8541 76.8562 76.8586 76.8611 76.8637 76.8666 76.8696 76.8727 76.8761 76.8795 76.8831 76.8867 76.8903 76.8939 76.8974 76.9008 76.9038 76.9065 76.9086 76.9101 76.9106 76.9101 76.9083 76.9048 76.8993 76.8915 76.881 76.8671 76.8494 76.8273 76.7999 76.7666 76.7263 76.678 76.6206 76.5528 76.473 76.3796 76.2708 76.1445 75.9986 75.8306 75.6378 75.4175 75.1668 74.8828 74.5628 74.2042 73.8052 73.3648 72.8833 72.3627 71.8069 71.2221 70.6165 70 
20 23.3925 26.7461 30.0249 33.1978 36.2402 39.1343 41.869 44.439 46.8437 49.0862 51.1723 53.1092 54.9053 56.5696 58.1108 59.5378 60.8586 62.0813 63.2131 64.2608 65.2307 66.1284 66.9593 67.7283 68.4396 69.0975 69.7058 70.2678 70.7868 71.2657 71.7074 72.1144 72.4891 72.8337 73.1503 73.4409 73.7073 73.9512 74.1743 74.3781 74.564 74.7332 74.8872 75.0271 75.154 75.2688 75.3727 75.4664 75.5509 75.6269 75.6952 75.7565 75.8113 75.8603 75.904 75.9429 75.9776 76.0082 76.0355 76.0595 76.0807 76.0993 76.1158 76.1301 76.1427 76.1536 76.1632 76.1715 76.1787 76.1849 76.1903 76.1948 76.1988 76.202 76.2049 76.2071 76.2092 76.2107 76.2122 76.2131 76.2141 76.2146 76.2152 76.2154 76.2158 76.2157 76.2158 76.2156 76.2156 76.2152 76.2151 76.2146 76.2144 76.2138 76.2136 76.2129 76.2126 76.2119 76.2117 76.2109 76.2106 76.2099 76.2096 76.2088 76.2085 76.2078 76.2075 76.2068 76.2065 76.2058 76.2056 76.2049 76.2047 76.2041 76.2039 76.2033 76.2033 76.2027 76.2027 76.2022 76.2022 76.2018 76.2019 76.2015 76.2017 76.2014 76.2016 76.2014 76.2017 76.2015 76.2019 76.2018 76.2022 76.2022 76.2027 76.2027 76.2033 76.2033 76.2039 76.2041 76.2047 76.2049 76.2056 76.2058 76.2065 76.2068 76.2075 76.2078 76.2086 76.2089 76.2097 76.21 76.2108 76.2111 76.2119 76.2122 76.213 76.2133 76.2141 76.2144 76.2151 76.2154 76.2161 76.2165 76.2171 76.2174 76.2181 76.2184 76.219 76.2193 76.2199 76.2202 76.2207 76.221 76.2215 76.2218 76.2223 76.2226 76.2231 76.2234 76.224 76.2243 76.2248 76.2252 76.2258 76.2263 76.2269 76.2275 76.2282 76.2289 76.2297 76.2306 76.2316 76.2326 76.2338 76.235 76.2364 76.2379 76.2396 76.2414 76.2434 76.2456 76.248 76.2505 76.2533 76.2562 76.2593 76.2626 76.2662 76.2699 76.2737 76.2777 76.2818 76.2859 76.2901 76.2942 76.2981 76.3018 76.3051 76.308 76.3102 76.3115 76.3118 76.3108 76.3082 76.3037 76.2969 76.2873 76.2745 76.258 76.237 76.2109 76.1789 76.1401 76.0936 76.0381 75.9725 75.8953 75.8051 75.7002 75.5787 75.4388 75.2781 75.0946 74.886 74.6499 74.384 74.0863 73.7552 73.3896 72.9892 72.5547 72.0884 71.5938 71.0763 70.5424 70 
20 23.1817 26.3321 29.4218 32.4249 35.32 38.091 40.7267 43.2205 45.5698 47.7752 49.8398 51.7684 53.567 55.2423 56.8013 58.2511 59.5986 60.8506 62.0134 63.0931 64.0954 65.0255 65.8883 66.6884 67.43 68.1171 68.7532 69.3419 69.8862 70.3891 70.8534 71.2816 71.6762 72.0394 72.3734 72.6802 72.9616 73.2194 73.4553 73.6709 73.8676 74.0469 74.21 74.3583 74.4927 74.6146 74.7247 74.8242 74.9139 74.9946 75.0671 75.1322 75.1904 75.2425 75.2889 75.3303 75.3671 75.3998 75.4286 75.4542 75.4767 75.4966 75.514 75.5293 75.5426 75.5544 75.5644 75.5733 75.5809 75.5875 75.5931 75.598 75.6021 75.6057 75.6086 75.6112 75.6131 75.6149 75.6162 75.6174 75.6181 75.6189 75.6192 75.6197 75.6197 75.6199 75.6197 75.6197 75.6193 75.6192 75.6187 75.6185 75.6178 75.6175 75.6168 75.6165 75.6157 75.6153 75.6145 75.6141 75.6133 75.6129 75.612 75.6117 75.6108 75.6105 75.6096 75.6093 75.6084 75.6081 75.6073 75.6071 75.6063 75.6061 75.6054 75.6053 75.6046 75.6045 75.6039 75.6039 75.6034 75.6035 75.603 75.6032 75.6028 75.603 75.6027 75.603 75.6028 75.6032 75.603 75.6035 75.6034 75.6039 75.6039 75.6045 75.6046 75.6053 75.6054 75.6061 75.6063 75.6071 75.6073 75.6082 75.6084 75.6093 75.6096 75.6105 75.6109 75.6118 75.6121 75.613 75.6134 75.6143 75.6147 75.6156 75.616 75.6169 75.6173 75.6182 75.6186 75.6194 75.6198 75.6206 75.6209 75.6217 75.6221 75.6228 75.6231 75.6238 75.6242 75.6248 75.6252 75.6258 75.6261 75.6267 75.6271 75.6276 75.628 75.6286 75.6289 75.6295 75.63 75.6306 75.6311 75.6317 75.6323 75.633 75.6337 75.6346 75.6354 75.6364 75.6374 75.6386 75.6398 75.6412 75.6427 75.6444 75.6462 75.6482 75.6504 75.6527 75.6553 75.6581 75.6611 75.6643 75.6677 75.6714 75.6753 75.6794 75.6837 75.6881 75.6927 75.6974 75.7021 75.7068 75.7114 75.7158 75.7199 75.7236 75.7266 75.7289 75.7301 75.7302 75.7286 75.7253 75.7197 75.7114 75.7 75.685 75.6656 75.6414 75.6114 75.5748 75.5307 75.478 75.4156 75.3422 75.2565 75.1568 75.0416 74.9092 74.7577 74.5852 74.39 74.17 73.9237 73.6495 73.3464 73.0137 72.6518 72.2615 71.8452 71.4059 70.9481 70.4774 70 